 argument  1 = b3lyp.nw
 


============================== echo of input deck ==============================
echo
title "total energy of benzene, B3LYP/3-21G"

start c6h6-b3lyp

geometry
 C    0.99261000     0.99261000     0.00000000
 C   -1.35593048     0.36332048     0.00000000
 C    0.36332048    -1.35593048     0.00000000
 C   -0.99261000    -0.99261000     0.00000000
 C    1.35593048    -0.36332048     0.00000000
 C   -0.36332048     1.35593048     0.00000000
 H    1.75792000     1.75792000     0.00000000
 H   -2.40136338     0.64344338     0.00000000
 H    0.64344338    -2.40136338     0.00000000
 H   -1.75792000    -1.75792000     0.00000000
 H    2.40136338    -0.64344338     0.00000000
 H   -0.64344338     2.40136338     0.00000000
end

basis
* library 3-21G
end

dft
  xc b3lyp
end

task dft energy
task dft optimize
task dft freq
================================================================================


                                         
                                         
 
 
              Northwest Computational Chemistry Package (NWChem) 6.0
              ------------------------------------------------------
 
 
                    Environmental Molecular Sciences Laboratory
                       Pacific Northwest National Laboratory
                                Richland, WA 99352
 
                              Copyright (c) 1994-2010
                       Pacific Northwest National Laboratory
                            Battelle Memorial Institute
 
             NWChem is an open-source computational chemistry package
                        distributed under the terms of the
                      Educational Community License (ECL) 2.0
             A copy of the license is included with this distribution
                              in the LICENSE.TXT file
 
                                  ACKNOWLEDGMENT
                                  --------------

            This software and its documentation were developed at the
            EMSL at Pacific Northwest National Laboratory, a multiprogram
            national laboratory, operated for the U.S. Department of Energy
            by Battelle under Contract Number DE-AC05-76RL01830. Support
            for this work was provided by the Department of Energy Office
            of Biological and Environmental Research, Office of Basic
            Energy Sciences, and the Office of Advanced Scientific Computing.


           Job information
           ---------------

    hostname      = curie
    program       = ../../../bin/LINUX64/nwchem
    date          = Mon Nov 15 16:49:24 2010

    compiled      = Mon_Nov_15_10:21:04_2010
    source        = /home/niri/nwchem/nwchem-6.0
    nwchem branch = 6.0
    input         = b3lyp.nw
    prefix        = c6h6-b3lyp.
    data base     = ./c6h6-b3lyp.db
    status        = startup
    nproc         =        4
    time left     =     -1s



           Memory information
           ------------------

    heap     =   13107201 doubles =    100.0 Mbytes
    stack    =   13107201 doubles =    100.0 Mbytes
    global   =   26214400 doubles =    200.0 Mbytes (distinct from heap & stack)
    total    =   52428802 doubles =    400.0 Mbytes
    verify   = yes
    hardfail = no 


           Directory information
           ---------------------
 
  0 permanent = .
  0 scratch   = .
 
 
 
 
                                NWChem Input Module
                                -------------------
 
 
                       total energy of benzene, B3LYP/3-21G
                       ------------------------------------

 Scaling coordinates for geometry "geometry" by  1.889725989
 (inverse scale =  0.529177249)

 D6H symmetry detected

          ------
          auto-z
          ------
 
 
                             Geometry "geometry" -> ""
                             -------------------------
 
 Output coordinates in angstroms (scale by  1.889725989 to convert to a.u.)
 
  No.       Tag          Charge          X              Y              Z
 ---- ---------------- ---------- -------------- -------------- --------------
    1 C                    6.0000     0.99261000     0.99261000     0.00000000
    2 C                    6.0000    -1.35593048     0.36332048     0.00000000
    3 C                    6.0000     0.36332048    -1.35593048     0.00000000
    4 C                    6.0000    -0.99261000    -0.99261000     0.00000000
    5 C                    6.0000     1.35593048    -0.36332048     0.00000000
    6 C                    6.0000    -0.36332048     1.35593048     0.00000000
    7 H                    1.0000     1.75792000     1.75792000     0.00000000
    8 H                    1.0000    -2.40136338     0.64344338     0.00000000
    9 H                    1.0000     0.64344338    -2.40136338     0.00000000
   10 H                    1.0000    -1.75792000    -1.75792000     0.00000000
   11 H                    1.0000     2.40136338    -0.64344338     0.00000000
   12 H                    1.0000    -0.64344338     2.40136338     0.00000000
 
      Atomic Mass 
      ----------- 
 
      C                 12.000000
      H                  1.007825
 

 Effective nuclear repulsion energy (a.u.)     202.4405395545

            Nuclear Dipole moment (a.u.) 
            ----------------------------
        X                 Y               Z
 ---------------- ---------------- ----------------
     0.0000000000     0.0000000000     0.0000000000
 
      Symmetry information
      --------------------
 
 Group name             D6h       
 Group number             30
 Group order              24
 No. of unique centers     2
 
      Symmetry unique atoms
 
     1    7
 


                                Z-matrix (autoz)
                                -------- 

 Units are Angstrom for bonds and degrees for angles
 
      Type          Name      I     J     K     L     M      Value
      ----------- --------  ----- ----- ----- ----- ----- ----------
    1 Stretch                  1     5                       1.40376
    2 Stretch                  1     6                       1.40376
    3 Stretch                  1     7                       1.08231
    4 Stretch                  2     4                       1.40376
    5 Stretch                  2     6                       1.40376
    6 Stretch                  2     8                       1.08231
    7 Stretch                  3     4                       1.40376
    8 Stretch                  3     5                       1.40376
    9 Stretch                  3     9                       1.08231
   10 Stretch                  4    10                       1.08231
   11 Stretch                  5    11                       1.08231
   12 Stretch                  6    12                       1.08231
   13 Bend                     1     5     3               120.00000
   14 Bend                     1     5    11               120.00000
   15 Bend                     1     6     2               120.00000
   16 Bend                     1     6    12               120.00000
   17 Bend                     2     4     3               120.00000
   18 Bend                     2     4    10               120.00000
   19 Bend                     2     6    12               120.00000
   20 Bend                     3     4    10               120.00000
   21 Bend                     3     5    11               120.00000
   22 Bend                     4     2     6               120.00000
   23 Bend                     4     2     8               120.00000
   24 Bend                     4     3     5               120.00000
   25 Bend                     4     3     9               120.00000
   26 Bend                     5     1     6               120.00000
   27 Bend                     5     1     7               120.00000
   28 Bend                     5     3     9               120.00000
   29 Bend                     6     1     7               120.00000
   30 Bend                     6     2     8               120.00000
   31 Torsion                  1     5     3     4           0.00000
   32 Torsion                  1     5     3     9         180.00000
   33 Torsion                  1     6     2     4           0.00000
   34 Torsion                  1     6     2     8         180.00000
   35 Torsion                  2     4     3     5           0.00000
   36 Torsion                  2     4     3     9         180.00000
   37 Torsion                  2     6     1     5           0.00000
   38 Torsion                  2     6     1     7         180.00000
   39 Torsion                  3     4     2     6           0.00000
   40 Torsion                  3     4     2     8         180.00000
   41 Torsion                  3     5     1     6           0.00000
   42 Torsion                  3     5     1     7         180.00000
   43 Torsion                  4     2     6    12         180.00000
   44 Torsion                  4     3     5    11         180.00000
   45 Torsion                  5     1     6    12         180.00000
   46 Torsion                  5     3     4    10         180.00000
   47 Torsion                  6     1     5    11         180.00000
   48 Torsion                  6     2     4    10         180.00000
   49 Torsion                  7     1     5    11           0.00000
   50 Torsion                  7     1     6    12           0.00000
   51 Torsion                  8     2     4    10           0.00000
   52 Torsion                  8     2     6    12           0.00000
   53 Torsion                  9     3     4    10           0.00000
   54 Torsion                  9     3     5    11           0.00000
 
 
            XYZ format geometry
            -------------------
    12
 geometry
 C                     0.99261000     0.99261000     0.00000000
 C                    -1.35593048     0.36332048     0.00000000
 C                     0.36332048    -1.35593048     0.00000000
 C                    -0.99261000    -0.99261000     0.00000000
 C                     1.35593048    -0.36332048     0.00000000
 C                    -0.36332048     1.35593048     0.00000000
 H                     1.75792000     1.75792000     0.00000000
 H                    -2.40136338     0.64344338     0.00000000
 H                     0.64344338    -2.40136338     0.00000000
 H                    -1.75792000    -1.75792000     0.00000000
 H                     2.40136338    -0.64344338     0.00000000
 H                    -0.64344338     2.40136338     0.00000000
 
 ==============================================================================
                                internuclear distances
 ------------------------------------------------------------------------------
       center one      |      center two      | atomic units |  angstroms
 ------------------------------------------------------------------------------
    4 C                |   2 C                |     2.65273  |     1.40376
    4 C                |   3 C                |     2.65273  |     1.40376
    5 C                |   1 C                |     2.65273  |     1.40376
    5 C                |   3 C                |     2.65273  |     1.40376
    6 C                |   1 C                |     2.65273  |     1.40376
    6 C                |   2 C                |     2.65273  |     1.40376
    7 H                |   1 C                |     2.04527  |     1.08231
    8 H                |   2 C                |     2.04527  |     1.08231
    9 H                |   3 C                |     2.04527  |     1.08231
   10 H                |   4 C                |     2.04527  |     1.08231
   11 H                |   5 C                |     2.04527  |     1.08231
   12 H                |   6 C                |     2.04527  |     1.08231
 ------------------------------------------------------------------------------
                         number of included internuclear distances:         12
 ==============================================================================



 ==============================================================================
                                 internuclear angles
 ------------------------------------------------------------------------------
        center 1       |       center 2       |       center 3       |  degrees
 ------------------------------------------------------------------------------
    5 C                |   1 C                |   6 C                |   120.00
    5 C                |   1 C                |   7 H                |   120.00
    6 C                |   1 C                |   7 H                |   120.00
    4 C                |   2 C                |   6 C                |   120.00
    4 C                |   2 C                |   8 H                |   120.00
    6 C                |   2 C                |   8 H                |   120.00
    4 C                |   3 C                |   5 C                |   120.00
    4 C                |   3 C                |   9 H                |   120.00
    5 C                |   3 C                |   9 H                |   120.00
    2 C                |   4 C                |   3 C                |   120.00
    2 C                |   4 C                |  10 H                |   120.00
    3 C                |   4 C                |  10 H                |   120.00
    1 C                |   5 C                |   3 C                |   120.00
    1 C                |   5 C                |  11 H                |   120.00
    3 C                |   5 C                |  11 H                |   120.00
    1 C                |   6 C                |   2 C                |   120.00
    1 C                |   6 C                |  12 H                |   120.00
    2 C                |   6 C                |  12 H                |   120.00
 ------------------------------------------------------------------------------
                            number of included internuclear angles:         18
 ==============================================================================



  library name resolved from: environment
  library file name is: </home/niri/nwchem/nwchem-6.0/src/basis/libraries/>
  


 Summary of "ao basis" -> "" (cartesian)
 ------------------------------------------------------------------------------
       Tag                 Description            Shells   Functions and Types
 ---------------- ------------------------------  ------  ---------------------
 *                           3-21G                    on all atoms 


 
                                 NWChem DFT Module
                                 -----------------
 
 
                       total energy of benzene, B3LYP/3-21G
 
 
                      Basis "ao basis" -> "ao basis" (cartesian)
                      -----
  C (Carbon)
  ----------
            Exponent  Coefficients 
       -------------- ---------------------------------------------------------
  1 S  1.72256000E+02  0.061767
  1 S  2.59109000E+01  0.358794
  1 S  5.53335000E+00  0.700713
 
  2 S  3.66498000E+00 -0.395897
  2 S  7.70545000E-01  1.215840
 
  3 P  3.66498000E+00  0.236460
  3 P  7.70545000E-01  0.860619
 
  4 S  1.95857000E-01  1.000000
 
  5 P  1.95857000E-01  1.000000
 
  H (Hydrogen)
  ------------
            Exponent  Coefficients 
       -------------- ---------------------------------------------------------
  1 S  5.44717800E+00  0.156285
  1 S  8.24547000E-01  0.904691
 
  2 S  1.83192000E-01  1.000000
 


 Summary of "ao basis" -> "ao basis" (cartesian)
 ------------------------------------------------------------------------------
       Tag                 Description            Shells   Functions and Types
 ---------------- ------------------------------  ------  ---------------------
 C                           3-21G                   5        9   3s2p
 H                           3-21G                   2        2   2s


  Caching 1-el integrals 
 
            General Information
            -------------------
          SCF calculation type: DFT
          Wavefunction type:  closed shell.
          No. of atoms     :    12
          No. of electrons :    42
           Alpha electrons :    21
            Beta electrons :    21
          Charge           :     0
          Spin multiplicity:     1
          Use of symmetry is: on ; symmetry adaption is: on 
          Maximum number of iterations:  30
          AO basis - number of functions:    66
                     number of shells:    42
          Convergence on energy requested: 1.00D-06
          Convergence on density requested: 1.00D-05
          Convergence on gradient requested: 5.00D-04
 
              XC Information
              --------------
                         B3LYP Method XC Potential
                     Hartree-Fock (Exact) Exchange  0.200          
                        Slater Exchange Functional  0.800 local    
                    Becke 1988 Exchange Functional  0.720 non-local
              Lee-Yang-Parr Correlation Functional  0.810          
                  VWN I RPA Correlation Functional  0.190 local    
 
             Grid Information
             ----------------
          Grid used for XC integration:  medium    
          Radial quadrature: Mura-Knowles        
          Angular quadrature: Lebedev. 
          Tag              B.-S. Rad. Rad. Pts. Rad. Cut. Ang. Pts.
          ---              ---------- --------- --------- ---------
          C                   0.70       49          10.0       434
          H                   0.35       45          11.0       434
          Grid pruning is: on 
          Number of quadrature shells:    94
          Spatial weights used:  Erf1
 
          Convergence Information
          -----------------------
          Convergence aids based upon iterative change in 
          total energy or number of iterations. 
          Levelshifting, if invoked, occurs when the 
          HOMO/LUMO gap drops below (HL_TOL): 1.00D-02
          DIIS, if invoked, will attempt to extrapolate 
          using up to (NFOCK): 10 stored Fock matrices.

                    Damping( 0%)  Levelshifting(0.5)       DIIS
                  --------------- ------------------- ---------------
          dE  on:    start            ASAP                start   
          dE off:    2 iters         30 iters            30 iters 

 
      Screening Tolerance Information
      -------------------------------
          Density screening/tol_rho: 1.00D-10
          AO Gaussian exp screening on grid/accAOfunc:  14
          CD Gaussian exp screening on grid/accCDfunc:  20
          XC Gaussian exp screening on grid/accXCfunc:  20
          Schwarz screening/accCoul: 1.00D-08

 
      Superposition of Atomic Density Guess
      -------------------------------------
 
 Sum of atomic energies:        -227.75976746
 
      Non-variational initial energy
      ------------------------------

 Total energy =    -231.937013
 1-e energy   =    -705.828643
 2-e energy   =     271.451090
 HOMO         =      -0.283977
 LUMO         =       0.017158
 
 
      Symmetry analysis of molecular orbitals - initial
      -------------------------------------------------
 
  Numbering of irreducible representations: 
 
     1 a1g         2 a1u         3 a2g         4 a2u         5 b1g     
     6 b1u         7 b2g         8 b2u         9 e1g        10 e1u     
    11 e2g        12 e2u     
 
  Orbital symmetries:
 
     1 a1g         2 e1u         3 e1u         4 b1u         5 e2g     
     6 e2g         7 a1g         8 e1u         9 e1u        10 e2g     
    11 e2g        12 a1g        13 b1u        14 b2u        15 e1u     
    16 e1u        17 a2u        18 e2g        19 e2g        20 e1g     
    21 e1g        22 e2u        23 e2u        24 a1g        25 b2g     
    26 e1u        27 e1u        28 e2g        29 e2g        30 b1u     
    31 e2g     
 
   Time after variat. SCF:      0.1
   Time prior to 1st pass:      0.1

 #quartets = 3.741D+04 #integrals = 1.411D+05 #direct =  0.0% #cached =100.0%


 Integral file          = ./c6h6-b3lyp.aoints.0
 Record size in doubles =  65536        No. of integs per rec  =  43688
 Max. records in memory =      3        Max. records in file   =   3197
 No. of bits per label  =      8        No. of bits per value  =     64


File balance: exchanges=     0  moved=     0  time=   0.0


 Grid_pts file          = ./c6h6-b3lyp.gridpts.0
 Record size in doubles =  12289        No. of grid_pts per rec  =   3070
 Max. records in memory =      5        Max. recs in file   =     17053


           Memory utilization after 1st SCF pass: 
           Heap Space remaining (MW):       12.85            12845578
          Stack Space remaining (MW):       13.11            13106547

   convergence    iter        energy       DeltaE   RMS-Dens  Diis-err    time
 ---------------- ----- ----------------- --------- --------- ---------  ------
 d= 0,ls=0.0,diis     1   -230.9167427388 -4.33D+02  8.30D-03  5.38D-01     0.3
 d= 0,ls=0.0,diis     2   -230.9729686416 -5.62D-02  2.54D-03  2.02D-02     0.4
 d= 0,ls=0.0,diis     3   -230.9743539554 -1.39D-03  1.42D-03  8.48D-03     0.5
 d= 0,ls=0.0,diis     4   -230.9755009661 -1.15D-03  2.73D-04  1.42D-04     0.6
 d= 0,ls=0.0,diis     5   -230.9755226961 -2.17D-05  1.04D-05  1.42D-07     0.6
 d= 0,ls=0.0,diis     6   -230.9755227222 -2.60D-08  6.69D-07  4.36D-10     0.7


         Total DFT energy =     -230.975522722193
      One electron energy =     -710.329238556732
           Coulomb energy =      311.561925534489
    Exchange-Corr. energy =      -34.648749254472
 Nuclear repulsion energy =      202.440539554522

 Numeric. integr. density =       41.999994036658

     Total iterative time =      0.6s


 
                       DFT Final Molecular Orbital Analysis
                       ------------------------------------
 
 Vector    6  Occ=2.000000D+00  E=-1.012684D+01  Symmetry=a1g
              MO Center=  6.5D-12, -1.2D-12,  4.0D-30, r^2= 2.0D+00
   Bfn.  Coefficient  Atom+Function         Bfn.  Coefficient  Atom+Function  
  ----- ------------  ---------------      ----- ------------  ---------------
    37     -0.402317   5 C  s                 1     -0.402317   1 C  s         
    19     -0.402317   3 C  s                46     -0.402317   6 C  s         
    28     -0.402317   4 C  s                10     -0.402317   2 C  s         
 
 Vector    7  Occ=2.000000D+00  E=-8.521221D-01  Symmetry=a1g
              MO Center= -1.5D-17,  1.6D-17, -2.6D-33, r^2= 2.1D+00
   Bfn.  Coefficient  Atom+Function         Bfn.  Coefficient  Atom+Function  
  ----- ------------  ---------------      ----- ------------  ---------------
     6      0.183418   1 C  s                15      0.183418   2 C  s         
    24      0.183418   3 C  s                33      0.183418   4 C  s         
    42      0.183418   5 C  s                51      0.183418   6 C  s         
 
 Vector    8  Occ=2.000000D+00  E=-7.447206D-01  Symmetry=e1u
              MO Center=  1.8D-17, -3.5D-17, -1.5D-33, r^2= 2.9D+00
   Bfn.  Coefficient  Atom+Function         Bfn.  Coefficient  Atom+Function  
  ----- ------------  ---------------      ----- ------------  ---------------
     6      0.314981   1 C  s                33     -0.314981   4 C  s         
    24     -0.220932   3 C  s                51      0.220932   6 C  s         
 
 Vector    9  Occ=2.000000D+00  E=-7.447206D-01  Symmetry=e1u
              MO Center=  1.3D-14,  5.8D-15,  1.6D-17, r^2= 2.9D+00
   Bfn.  Coefficient  Atom+Function         Bfn.  Coefficient  Atom+Function  
  ----- ------------  ---------------      ----- ------------  ---------------
    42      0.309410   5 C  s                15     -0.309410   2 C  s         
    51     -0.236154   6 C  s                24      0.236154   3 C  s         
 
 Vector   10  Occ=2.000000D+00  E=-6.043780D-01  Symmetry=e2g
              MO Center=  1.7D-15, -5.3D-15,  9.3D-18, r^2= 3.7D+00
   Bfn.  Coefficient  Atom+Function         Bfn.  Coefficient  Atom+Function  
  ----- ------------  ---------------      ----- ------------  ---------------
    33     -0.315528   4 C  s                 6     -0.315528   1 C  s         
    51      0.263841   6 C  s                24      0.263841   3 C  s         
    40     -0.177240   5 C  py               13      0.177240   2 C  py        
 
 Vector   11  Occ=2.000000D+00  E=-6.043780D-01  Symmetry=e2g
              MO Center= -1.2D-14, -2.3D-15,  1.1D-30, r^2= 3.7D+00
   Bfn.  Coefficient  Atom+Function         Bfn.  Coefficient  Atom+Function  
  ----- ------------  ---------------      ----- ------------  ---------------
    15     -0.334499   2 C  s                42     -0.334499   5 C  s         
    24      0.212012   3 C  s                51      0.212012   6 C  s         
 
 Vector   12  Occ=2.000000D+00  E=-5.272458D-01  Symmetry=a1g
              MO Center= -3.5D-15,  2.1D-15,  1.3D-16, r^2= 4.2D+00
   Bfn.  Coefficient  Atom+Function         Bfn.  Coefficient  Atom+Function  
  ----- ------------  ---------------      ----- ------------  ---------------
    22      0.167419   3 C  py               49     -0.167419   6 C  py        
    12      0.167419   2 C  px               39     -0.167419   5 C  px        
 
 Vector   13  Occ=2.000000D+00  E=-4.627398D-01  Symmetry=b1u
              MO Center=  8.6D-16,  2.2D-16, -4.8D-20, r^2= 5.3D+00
   Bfn.  Coefficient  Atom+Function         Bfn.  Coefficient  Atom+Function  
  ----- ------------  ---------------      ----- ------------  ---------------
    33      0.267477   4 C  s                24     -0.267477   3 C  s         
     6     -0.267477   1 C  s                51      0.267477   6 C  s         
    15     -0.267477   2 C  s                42      0.267477   5 C  s         
 
 Vector   14  Occ=2.000000D+00  E=-4.507899D-01  Symmetry=b2u
              MO Center= -1.0D-15,  3.8D-16,  6.0D-45, r^2= 2.7D+00
   Bfn.  Coefficient  Atom+Function         Bfn.  Coefficient  Atom+Function  
  ----- ------------  ---------------      ----- ------------  ---------------
    13      0.239172   2 C  py               40      0.239172   5 C  py        
    21     -0.239172   3 C  px               48     -0.239172   6 C  px        
    30      0.175086   4 C  px                3      0.175086   1 C  px        
     4     -0.175086   1 C  py               31     -0.175086   4 C  py        
 
 Vector   15  Occ=2.000000D+00  E=-4.258447D-01  Symmetry=e1u
              MO Center=  6.1D-15,  9.2D-16,  9.9D-19, r^2= 4.0D+00
   Bfn.  Coefficient  Atom+Function         Bfn.  Coefficient  Atom+Function  
  ----- ------------  ---------------      ----- ------------  ---------------
    30     -0.194784   4 C  px                3     -0.194784   1 C  px        
     4     -0.181018   1 C  py               31     -0.181018   4 C  py        
    55     -0.153402   7 H  s                61      0.153402  10 H  s         
 
 Vector   16  Occ=2.000000D+00  E=-4.258447D-01  Symmetry=e1u
              MO Center=  1.3D-15, -8.9D-16,  1.2D-32, r^2= 4.0D+00
   Bfn.  Coefficient  Atom+Function         Bfn.  Coefficient  Atom+Function  
  ----- ------------  ---------------      ----- ------------  ---------------
    39     -0.246613   5 C  px               12     -0.246613   2 C  px        
    22      0.217000   3 C  py               49      0.217000   6 C  py        
    43     -0.160173   5 C  px               16     -0.160173   2 C  px        
 
 Vector   17  Occ=2.000000D+00  E=-3.639419D-01  Symmetry=a2u
              MO Center= -1.9D-15, -1.5D-15, -2.3D-16, r^2= 2.8D+00
   Bfn.  Coefficient  Atom+Function         Bfn.  Coefficient  Atom+Function  
  ----- ------------  ---------------      ----- ------------  ---------------
    32     -0.192218   4 C  pz               50     -0.192218   6 C  pz        
    14     -0.192218   2 C  pz               23     -0.192218   3 C  pz        
    41     -0.192218   5 C  pz                5     -0.192218   1 C  pz        
    36     -0.168743   4 C  pz               27     -0.168743   3 C  pz        
    54     -0.168743   6 C  pz               18     -0.168743   2 C  pz        
 
 Vector   18  Occ=2.000000D+00  E=-3.466067D-01  Symmetry=e2g
              MO Center= -2.3D-15, -2.4D-15, -6.0D-31, r^2= 4.2D+00
   Bfn.  Coefficient  Atom+Function         Bfn.  Coefficient  Atom+Function  
  ----- ------------  ---------------      ----- ------------  ---------------
    21     -0.222087   3 C  px               48      0.222087   6 C  px        
    30      0.194953   4 C  px                3     -0.194953   1 C  px        
    39      0.189529   5 C  px               12     -0.189529   2 C  px        
    43      0.152338   5 C  px               16     -0.152338   2 C  px        
 
 Vector   19  Occ=2.000000D+00  E=-3.466067D-01  Symmetry=e2g
              MO Center= -3.2D-15,  1.5D-15,  4.7D-30, r^2= 4.2D+00
   Bfn.  Coefficient  Atom+Function         Bfn.  Coefficient  Atom+Function  
  ----- ------------  ---------------      ----- ------------  ---------------
    13     -0.214851   2 C  py               40      0.214851   5 C  py        
    31      0.209426   4 C  py                4     -0.209426   1 C  py        
    49      0.182292   6 C  py               22     -0.182292   3 C  py        
    66      0.158946  12 H  s                60      0.158946   9 H  s         
    65      0.158633  12 H  s                59      0.158633   9 H  s         
 
 Vector   20  Occ=2.000000D+00  E=-2.501368D-01  Symmetry=e1g
              MO Center=  1.8D-15,  1.4D-15,  4.0D-17, r^2= 3.0D+00
   Bfn.  Coefficient  Atom+Function         Bfn.  Coefficient  Atom+Function  
  ----- ------------  ---------------      ----- ------------  ---------------
     9      0.305641   1 C  pz               36     -0.305641   4 C  pz        
     5      0.291839   1 C  pz               32     -0.291839   4 C  pz        
    45      0.160599   5 C  pz               18     -0.160599   2 C  pz        
    41      0.153347   5 C  pz               14     -0.153347   2 C  pz        
 
 Vector   21  Occ=2.000000D+00  E=-2.501368D-01  Symmetry=e1g
              MO Center=  1.7D-15,  5.6D-16,  3.6D-17, r^2= 3.0D+00
   Bfn.  Coefficient  Atom+Function         Bfn.  Coefficient  Atom+Function  
  ----- ------------  ---------------      ----- ------------  ---------------
    54      0.269184   6 C  pz               27     -0.269184   3 C  pz        
    45     -0.260202   5 C  pz               18      0.260202   2 C  pz        
    50      0.257028   6 C  pz               23     -0.257028   3 C  pz        
    41     -0.248452   5 C  pz               14      0.248452   2 C  pz        
 
 Vector   22  Occ=0.000000D+00  E= 3.850269D-03  Symmetry=e2u
              MO Center=  2.8D-15, -8.6D-16, -3.3D-16, r^2= 3.3D+00
   Bfn.  Coefficient  Atom+Function         Bfn.  Coefficient  Atom+Function  
  ----- ------------  ---------------      ----- ------------  ---------------
    45      0.533376   5 C  pz               18      0.533376   2 C  pz        
    41      0.313041   5 C  pz               14      0.313041   2 C  pz        
     9     -0.306880   1 C  pz               36     -0.306880   4 C  pz        
    27     -0.226495   3 C  pz               54     -0.226495   6 C  pz        
     5     -0.180110   1 C  pz               32     -0.180110   4 C  pz        
 
 Vector   23  Occ=0.000000D+00  E= 3.850269D-03  Symmetry=e2u
              MO Center=  1.1D-16,  3.6D-16,  1.3D-17, r^2= 3.3D+00
   Bfn.  Coefficient  Atom+Function         Bfn.  Coefficient  Atom+Function  
  ----- ------------  ---------------      ----- ------------  ---------------
    54      0.485122   6 C  pz               27      0.485122   3 C  pz        
     9     -0.438712   1 C  pz               36     -0.438712   4 C  pz        
    50      0.284721   6 C  pz               23      0.284721   3 C  pz        
     5     -0.257482   1 C  pz               32     -0.257482   4 C  pz        
 
 Vector   24  Occ=0.000000D+00  E= 1.075825D-01  Symmetry=a1g
              MO Center=  5.2D-15,  5.7D-15,  7.3D-18, r^2= 7.9D+00
   Bfn.  Coefficient  Atom+Function         Bfn.  Coefficient  Atom+Function  
  ----- ------------  ---------------      ----- ------------  ---------------
    56     -0.704059   7 H  s                62     -0.704059  10 H  s         
    60     -0.704059   9 H  s                58     -0.704059   8 H  s         
    66     -0.704059  12 H  s                64     -0.704059  11 H  s         
    24      0.512066   3 C  s                 6      0.512066   1 C  s         
    15      0.512066   2 C  s                51      0.512066   6 C  s         
 
 Vector   25  Occ=0.000000D+00  E= 1.621726D-01  Symmetry=b2g
              MO Center= -4.2D-15,  1.1D-16, -7.1D-21, r^2= 3.5D+00
   Bfn.  Coefficient  Atom+Function         Bfn.  Coefficient  Atom+Function  
  ----- ------------  ---------------      ----- ------------  ---------------
    18     -0.533344   2 C  pz               36      0.533344   4 C  pz        
    54      0.533344   6 C  pz                9     -0.533344   1 C  pz        
    27     -0.533344   3 C  pz               45      0.533344   5 C  pz        
    14     -0.251890   2 C  pz               32      0.251890   4 C  pz        
    50      0.251890   6 C  pz               23     -0.251890   3 C  pz        
 
 Vector   26  Occ=0.000000D+00  E= 1.650624D-01  Symmetry=e1u
              MO Center= -6.7D-15, -7.7D-15,  1.9D-19, r^2= 8.2D+00
   Bfn.  Coefficient  Atom+Function         Bfn.  Coefficient  Atom+Function  
  ----- ------------  ---------------      ----- ------------  ---------------
    62      1.123145  10 H  s                56     -1.123145   7 H  s         
    33     -0.739985   4 C  s                 6      0.739985   1 C  s         
    60      0.594101   9 H  s                66     -0.594101  12 H  s         
    58      0.529044   8 H  s                64     -0.529044  11 H  s         
    34      0.431879   4 C  px                7      0.431879   1 C  px        
 
 Vector   27  Occ=0.000000D+00  E= 1.650624D-01  Symmetry=e1u
              MO Center= -5.4D-14, -1.3D-14,  1.1D-17, r^2= 8.2D+00
   Bfn.  Coefficient  Atom+Function         Bfn.  Coefficient  Atom+Function  
  ----- ------------  ---------------      ----- ------------  ---------------
    58      0.991452   8 H  s                64     -0.991452  11 H  s         
    60     -0.953892   9 H  s                66      0.953892  12 H  s         
    15     -0.653219   2 C  s                42      0.653219   5 C  s         
    24      0.628472   3 C  s                51     -0.628472   6 C  s         
    16      0.523639   2 C  px               43      0.523639   5 C  px        
 
 Vector   28  Occ=0.000000D+00  E= 2.053488D-01  Symmetry=e2g
              MO Center=  2.8D-15, -5.8D-14,  8.6D-18, r^2= 7.9D+00
   Bfn.  Coefficient  Atom+Function         Bfn.  Coefficient  Atom+Function  
  ----- ------------  ---------------      ----- ------------  ---------------
    24      1.442937   3 C  s                51      1.442937   6 C  s         
    33     -1.147470   4 C  s                 6     -1.147470   1 C  s         
    60     -1.026467   9 H  s                66     -1.026467  12 H  s         
    62      0.816279  10 H  s                56      0.816279   7 H  s         
    44      0.412153   5 C  py               17     -0.412153   2 C  py        
 
 Vector   29  Occ=0.000000D+00  E= 2.053488D-01  Symmetry=e2g
              MO Center=  1.2D-13, -4.4D-15,  2.3D-16, r^2= 7.9D+00
   Bfn.  Coefficient  Atom+Function         Bfn.  Coefficient  Atom+Function  
  ----- ------------  ---------------      ----- ------------  ---------------
    42      1.495572   5 C  s                15      1.495572   2 C  s         
    64     -1.063910  11 H  s                58     -1.063910   8 H  s         
     6     -1.003668   1 C  s                33     -1.003668   4 C  s         
    56      0.713982   7 H  s                62      0.713982  10 H  s         
    24     -0.491904   3 C  s                51     -0.491904   6 C  s         
 
 Vector   30  Occ=0.000000D+00  E= 2.116516D-01  Symmetry=b1u
              MO Center= -5.9D-14,  6.1D-14,  1.0D-18, r^2= 8.9D+00
   Bfn.  Coefficient  Atom+Function         Bfn.  Coefficient  Atom+Function  
  ----- ------------  ---------------      ----- ------------  ---------------
    66     -0.972746  12 H  s                58      0.972746   8 H  s         
    62     -0.972746  10 H  s                56      0.972746   7 H  s         
    64     -0.972746  11 H  s                60      0.972746   9 H  s         
    53      0.721786   6 C  py               43      0.721786   5 C  px        
    26      0.721786   3 C  py               16      0.721786   2 C  px        
 
 Vector   31  Occ=0.000000D+00  E= 3.217240D-01  Symmetry=e2g
              MO Center= -8.7D-15, -3.4D-15,  2.0D-18, r^2= 4.8D+00
   Bfn.  Coefficient  Atom+Function         Bfn.  Coefficient  Atom+Function  
  ----- ------------  ---------------      ----- ------------  ---------------
    42     -1.371346   5 C  s                15     -1.371346   2 C  s         
     6      1.339070   1 C  s                33      1.339070   4 C  s         
    35      1.113602   4 C  py                8     -1.113602   1 C  py        
    16     -1.094753   2 C  px               43      1.094753   5 C  px        
    58     -0.748820   8 H  s                64     -0.748820  11 H  s         
 
 Vector   32  Occ=0.000000D+00  E= 3.217240D-01  Symmetry=e2g
              MO Center= -4.4D-15,  3.0D-15,  1.3D-16, r^2= 4.8D+00
   Bfn.  Coefficient  Atom+Function         Bfn.  Coefficient  Atom+Function  
  ----- ------------  ---------------      ----- ------------  ---------------
    51     -1.564860   6 C  s                24     -1.564860   3 C  s         
    53      1.348872   6 C  py               26     -1.348872   3 C  py        
     7     -0.952704   1 C  px               34      0.952704   4 C  px        
    66     -0.854488  12 H  s                60     -0.854488   9 H  s         
    16      0.817098   2 C  px               43     -0.817098   5 C  px        
 
 Vector   33  Occ=0.000000D+00  E= 3.331762D-01  Symmetry=e1u
              MO Center=  5.4D-14,  1.2D-14,  3.8D-17, r^2= 4.6D+00
   Bfn.  Coefficient  Atom+Function         Bfn.  Coefficient  Atom+Function  
  ----- ------------  ---------------      ----- ------------  ---------------
    44      1.640490   5 C  py               17      1.640490   2 C  py        
    51     -1.546512   6 C  s                24      1.546512   3 C  s         
    33      1.231612   4 C  s                 6     -1.231612   1 C  s         
     8      0.902856   1 C  py               35      0.902856   4 C  py        
     7     -0.696989   1 C  px               34     -0.696989   4 C  px        
 
 Vector   34  Occ=0.000000D+00  E= 3.331762D-01  Symmetry=e1u
              MO Center=  8.5D-15,  2.9D-15, -3.2D-19, r^2= 4.6D+00
   Bfn.  Coefficient  Atom+Function         Bfn.  Coefficient  Atom+Function  
  ----- ------------  ---------------      ----- ------------  ---------------
    42     -1.603951   5 C  s                15      1.603951   2 C  s         
    25      1.588645   3 C  px               52      1.588645   6 C  px        
     6     -1.074687   1 C  s                33      1.074687   4 C  s         
     7      1.006545   1 C  px               34      1.006545   4 C  px        
     8     -0.826909   1 C  py               35     -0.826909   4 C  py        
 
 Vector   35  Occ=0.000000D+00  E= 5.685785D-01  Symmetry=b1u
              MO Center=  2.3D-15, -6.0D-15,  1.5D-31, r^2= 3.8D+00
   Bfn.  Coefficient  Atom+Function         Bfn.  Coefficient  Atom+Function  
  ----- ------------  ---------------      ----- ------------  ---------------
     6     -2.367605   1 C  s                51      2.367605   6 C  s         
    33      2.367605   4 C  s                42      2.367605   5 C  s         
    15     -2.367605   2 C  s                24     -2.367605   3 C  s         
    26     -1.856083   3 C  py               43     -1.856083   5 C  px        
    16     -1.856083   2 C  px               53     -1.856083   6 C  py        
 

 center of mass
 --------------
 x =   0.00000000 y =   0.00000000 z =   0.00000000

 moments of inertia (a.u.)
 ------------------
         320.062201089014           0.000000000000           0.000000000000
           0.000000000000         320.062201089014           0.000000000000
           0.000000000000           0.000000000000         640.124402178028
 
     Multipole analysis of the density
     ---------------------------------
 
     L   x y z        total         alpha         beta         nuclear
     -   - - -        -----         -----         ----         -------
     0   0 0 0      0.000000    -21.000000    -21.000000     42.000000
 
     1   1 0 0      0.000000      0.000000      0.000000      0.000000
     1   0 1 0      0.000000      0.000000      0.000000      0.000000
     1   0 0 1      0.000000      0.000000      0.000000      0.000000
 
     2   2 0 0    -23.154082   -108.016459   -108.016459    192.878835
     2   1 1 0      0.000000      0.000000      0.000000      0.000000
     2   1 0 1      0.000000      0.000000      0.000000      0.000000
     2   0 2 0    -23.154082   -108.016459   -108.016459    192.878835
     2   0 1 1      0.000000      0.000000      0.000000      0.000000
     2   0 0 2    -29.714345    -14.857172    -14.857172      0.000000
 

 Parallel integral file used       4 records with       0 large values


 Task  times  cpu:        0.7s     wall:        1.2s
 
 
                                NWChem Input Module
                                -------------------
 
 
 
 
                           NWChem Geometry Optimization
                           ----------------------------
 
 
 
 
                       total energy of benzene, B3LYP/3-21G
 
 
 maximum gradient threshold         (gmax) =   0.000450
 rms gradient threshold             (grms) =   0.000300
 maximum cartesian step threshold   (xmax) =   0.001800
 rms cartesian step threshold       (xrms) =   0.001200
 fixed trust radius                (trust) =   0.300000
 maximum step size to saddle      (sadstp) =   0.100000
 energy precision                  (eprec) =   5.0D-06
 maximum number of steps          (nptopt) =   20
 initial hessian option           (inhess) =    0
 line search option               (linopt) =    1
 hessian update option            (modupd) =    1
 saddle point option              (modsad) =    0
 initial eigen-mode to follow     (moddir) =    0
 initial variable to follow       (vardir) =    0
 follow first negative mode     (firstneg) =    T
 apply conjugacy                    (opcg) =    F
 source of zmatrix                         =   autoz   


          -------------------
          Energy Minimization
          -------------------

 
 Names of Z-matrix variables 
    1              2              3              4              5         
    6              7              8              9             10         
   11             12             13             14             15         
   16             17             18             19             20         
   21             22             23             24             25         
   26             27             28             29             30         
   31             32             33             34             35         
   36             37             38             39             40         
   41             42             43             44             45         
   46             47             48             49             50         
   51             52             53             54         
 
 Variables with the same non-blank name are constrained to be equal
 
 
 Using diagonal initial Hessian 
 Scaling for Hessian diagonals: bonds = 1.00  angles = 0.25  torsions = 0.10

          --------
          Step   0
          --------
 
 
                         Geometry "geometry" -> "geometry"
                         ---------------------------------
 
 Output coordinates in angstroms (scale by  1.889725989 to convert to a.u.)
 
  No.       Tag          Charge          X              Y              Z
 ---- ---------------- ---------- -------------- -------------- --------------
    1 C                    6.0000     0.99261000     0.99261000     0.00000000
    2 C                    6.0000    -1.35593048     0.36332048     0.00000000
    3 C                    6.0000     0.36332048    -1.35593048     0.00000000
    4 C                    6.0000    -0.99261000    -0.99261000     0.00000000
    5 C                    6.0000     1.35593048    -0.36332048     0.00000000
    6 C                    6.0000    -0.36332048     1.35593048     0.00000000
    7 H                    1.0000     1.75792000     1.75792000     0.00000000
    8 H                    1.0000    -2.40136338     0.64344338     0.00000000
    9 H                    1.0000     0.64344338    -2.40136338     0.00000000
   10 H                    1.0000    -1.75792000    -1.75792000     0.00000000
   11 H                    1.0000     2.40136338    -0.64344338     0.00000000
   12 H                    1.0000    -0.64344338     2.40136338     0.00000000
 
      Atomic Mass 
      ----------- 
 
      C                 12.000000
      H                  1.007825
 

 Effective nuclear repulsion energy (a.u.)     202.4405395545

            Nuclear Dipole moment (a.u.) 
            ----------------------------
        X                 Y               Z
 ---------------- ---------------- ----------------
     0.0000000000     0.0000000000     0.0000000000
 
      Symmetry information
      --------------------
 
 Group name             D6h       
 Group number             30
 Group order              24
 No. of unique centers     2
 
      Symmetry unique atoms
 
     1    7
 
 
                                 NWChem DFT Module
                                 -----------------
 
 
                       total energy of benzene, B3LYP/3-21G
 
 

  The DFT is already converged 

         Total DFT energy =   -230.975522722193

 
 
                            NWChem DFT Gradient Module
                            --------------------------
 
 
                       total energy of benzene, B3LYP/3-21G
 
 

  charge          =   0.00
  wavefunction    = closed shell

  Using symmetry


                         DFT ENERGY GRADIENTS

    atom               coordinates                        gradient
                 x          y          z           x          y          z
   1 C       1.875761   1.875761   0.000000    0.005117   0.005117   0.000000
   2 C      -2.562337   0.686576   0.000000   -0.006990   0.001873   0.000000
   3 C       0.686576  -2.562337   0.000000    0.001873  -0.006990   0.000000
   4 C      -1.875761  -1.875761   0.000000   -0.005117  -0.005117   0.000000
   5 C       2.562337  -0.686576   0.000000    0.006990  -0.001873   0.000000
   6 C      -0.686576   2.562337   0.000000   -0.001873   0.006990   0.000000
   7 H       3.321987   3.321987   0.000000   -0.000813  -0.000813   0.000000
   8 H      -4.537919   1.215932   0.000000    0.001111  -0.000298   0.000000
   9 H       1.215932  -4.537919   0.000000   -0.000298   0.001111   0.000000
  10 H      -3.321987  -3.321987   0.000000    0.000813   0.000813   0.000000
  11 H       4.537919  -1.215932   0.000000   -0.001111   0.000298   0.000000
  12 H      -1.215932   4.537919   0.000000    0.000298  -0.001111   0.000000
 
                 ----------------------------------------
                 |  Time  |  1-e(secs)   |  2-e(secs)   |
                 ----------------------------------------
                 |  CPU   |       0.00   |       0.07   |
                 ----------------------------------------
                 |  WALL  |       0.00   |       0.07   |
                 ----------------------------------------

@ Step       Energy      Delta E   Gmax     Grms     Xrms     Xmax   Walltime
@ ---- ---------------- -------- -------- -------- -------- -------- --------
@    0    -230.97552272  0.0D+00  0.00609  0.00206  0.00000  0.00000      1.5
                                                       ok       ok  



                                Z-matrix (autoz)
                                -------- 

 Units are Angstrom for bonds and degrees for angles
 
      Type          Name      I     J     K     L     M      Value     Gradient
      ----------- --------  ----- ----- ----- ----- ----- ---------- ----------
    1 Stretch                  1     5                       1.40376    0.00609
    2 Stretch                  1     6                       1.40376    0.00609
    3 Stretch                  1     7                       1.08231   -0.00115
    4 Stretch                  2     4                       1.40376    0.00609
    5 Stretch                  2     6                       1.40376    0.00609
    6 Stretch                  2     8                       1.08231   -0.00115
    7 Stretch                  3     4                       1.40376    0.00609
    8 Stretch                  3     5                       1.40376    0.00609
    9 Stretch                  3     9                       1.08231   -0.00115
   10 Stretch                  4    10                       1.08231   -0.00115
   11 Stretch                  5    11                       1.08231   -0.00115
   12 Stretch                  6    12                       1.08231   -0.00115
   13 Bend                     1     5     3               120.00000    0.00000
   14 Bend                     1     5    11               120.00000    0.00000
   15 Bend                     1     6     2               120.00000    0.00000
   16 Bend                     1     6    12               120.00000    0.00000
   17 Bend                     2     4     3               120.00000    0.00000
   18 Bend                     2     4    10               120.00000    0.00000
   19 Bend                     2     6    12               120.00000    0.00000
   20 Bend                     3     4    10               120.00000    0.00000
   21 Bend                     3     5    11               120.00000    0.00000
   22 Bend                     4     2     6               120.00000    0.00000
   23 Bend                     4     2     8               120.00000    0.00000
   24 Bend                     4     3     5               120.00000    0.00000
   25 Bend                     4     3     9               120.00000    0.00000
   26 Bend                     5     1     6               120.00000    0.00000
   27 Bend                     5     1     7               120.00000    0.00000
   28 Bend                     5     3     9               120.00000    0.00000
   29 Bend                     6     1     7               120.00000    0.00000
   30 Bend                     6     2     8               120.00000    0.00000
   31 Torsion                  1     5     3     4           0.00000    0.00000
   32 Torsion                  1     5     3     9         180.00000    0.00000
   33 Torsion                  1     6     2     4           0.00000    0.00000
   34 Torsion                  1     6     2     8         180.00000    0.00000
   35 Torsion                  2     4     3     5           0.00000    0.00000
   36 Torsion                  2     4     3     9         180.00000    0.00000
   37 Torsion                  2     6     1     5           0.00000    0.00000
   38 Torsion                  2     6     1     7         180.00000    0.00000
   39 Torsion                  3     4     2     6           0.00000    0.00000
   40 Torsion                  3     4     2     8         180.00000    0.00000
   41 Torsion                  3     5     1     6           0.00000    0.00000
   42 Torsion                  3     5     1     7         180.00000    0.00000
   43 Torsion                  4     2     6    12         180.00000    0.00000
   44 Torsion                  4     3     5    11         180.00000    0.00000
   45 Torsion                  5     1     6    12         180.00000    0.00000
   46 Torsion                  5     3     4    10         180.00000    0.00000
   47 Torsion                  6     1     5    11         180.00000    0.00000
   48 Torsion                  6     2     4    10         180.00000    0.00000
   49 Torsion                  7     1     5    11           0.00000    0.00000
   50 Torsion                  7     1     6    12           0.00000    0.00000
   51 Torsion                  8     2     4    10           0.00000    0.00000
   52 Torsion                  8     2     6    12           0.00000    0.00000
   53 Torsion                  9     3     4    10           0.00000    0.00000
   54 Torsion                  9     3     5    11           0.00000    0.00000
 
 
                                 NWChem DFT Module
                                 -----------------
 
 
                       total energy of benzene, B3LYP/3-21G
 
 
  Caching 1-el integrals 
 
            General Information
            -------------------
          SCF calculation type: DFT
          Wavefunction type:  closed shell.
          No. of atoms     :    12
          No. of electrons :    42
           Alpha electrons :    21
            Beta electrons :    21
          Charge           :     0
          Spin multiplicity:     1
          Use of symmetry is: on ; symmetry adaption is: on 
          Maximum number of iterations:  30
          AO basis - number of functions:    66
                     number of shells:    42
          Convergence on energy requested: 1.00D-06
          Convergence on density requested: 1.00D-05
          Convergence on gradient requested: 5.00D-04
 
              XC Information
              --------------
                         B3LYP Method XC Potential
                     Hartree-Fock (Exact) Exchange  0.200          
                        Slater Exchange Functional  0.800 local    
                    Becke 1988 Exchange Functional  0.720 non-local
              Lee-Yang-Parr Correlation Functional  0.810          
                  VWN I RPA Correlation Functional  0.190 local    
 
             Grid Information
             ----------------
          Grid used for XC integration:  medium    
          Radial quadrature: Mura-Knowles        
          Angular quadrature: Lebedev. 
          Tag              B.-S. Rad. Rad. Pts. Rad. Cut. Ang. Pts.
          ---              ---------- --------- --------- ---------
          C                   0.70       49          10.0       434
          H                   0.35       45          11.0       434
          Grid pruning is: on 
          Number of quadrature shells:    94
          Spatial weights used:  Erf1
 
          Convergence Information
          -----------------------
          Convergence aids based upon iterative change in 
          total energy or number of iterations. 
          Levelshifting, if invoked, occurs when the 
          HOMO/LUMO gap drops below (HL_TOL): 1.00D-02
          DIIS, if invoked, will attempt to extrapolate 
          using up to (NFOCK): 10 stored Fock matrices.

                    Damping( 0%)  Levelshifting(0.5)       DIIS
                  --------------- ------------------- ---------------
          dE  on:    start            ASAP                start   
          dE off:    2 iters         30 iters            30 iters 

 
      Screening Tolerance Information
      -------------------------------
          Density screening/tol_rho: 1.00D-10
          AO Gaussian exp screening on grid/accAOfunc:  14
          CD Gaussian exp screening on grid/accCDfunc:  20
          XC Gaussian exp screening on grid/accXCfunc:  20
          Schwarz screening/accCoul: 1.00D-08


 Loading old vectors from job with title :

total energy of benzene, B3LYP/3-21G

 
      Symmetry analysis of molecular orbitals - initial
      -------------------------------------------------
 
  Numbering of irreducible representations: 
 
     1 a1g         2 a1u         3 a2g         4 a2u         5 b1g     
     6 b1u         7 b2g         8 b2u         9 e1g        10 e1u     
    11 e2g        12 e2u     
 
  Orbital symmetries:
 
     1 b1u         2 e2g         3 e2g         4 e1u         5 e1u     
     6 a1g         7 a1g         8 e1u         9 e1u        10 e2g     
    11 e2g        12 a1g        13 b1u        14 b2u        15 e1u     
    16 e1u        17 a2u        18 e2g        19 e2g        20 e1g     
    21 e1g        22 e2u        23 e2u        24 a1g        25 b2g     
    26 e1u        27 e1u        28 e2g        29 e2g        30 b1u     
    31 e2g     
 
   Time after variat. SCF:      1.1
   Time prior to 1st pass:      1.1

 #quartets = 3.653D+04 #integrals = 1.414D+05 #direct =  0.0% #cached =100.0%


 Integral file          = ./c6h6-b3lyp.aoints.0
 Record size in doubles =  65536        No. of integs per rec  =  43688
 Max. records in memory =      3        Max. records in file   =   3197
 No. of bits per label  =      8        No. of bits per value  =     64


File balance: exchanges=     0  moved=     0  time=   0.0


 Grid_pts file          = ./c6h6-b3lyp.gridpts.0
 Record size in doubles =  12289        No. of grid_pts per rec  =   3070
 Max. records in memory =      5        Max. recs in file   =     17053


           Memory utilization after 1st SCF pass: 
           Heap Space remaining (MW):       12.85            12845290
          Stack Space remaining (MW):       13.11            13106547

   convergence    iter        energy       DeltaE   RMS-Dens  Diis-err    time
 ---------------- ----- ----------------- --------- --------- ---------  ------
 d= 0,ls=0.0,diis     1   -230.9756891515 -4.34D+02  4.37D-04  6.68D-04     1.2
 d= 0,ls=0.0,diis     2   -230.9757480396 -5.89D-05  1.90D-04  7.39D-05     1.3
 d= 0,ls=0.0,diis     3   -230.9757544284 -6.39D-06  7.62D-05  2.43D-05     1.4
 d= 0,ls=0.0,diis     4   -230.9757578665 -3.44D-06  2.52D-06  1.68D-08     1.5
 d= 0,ls=0.0,diis     5   -230.9757578691 -2.56D-09  1.16D-07  1.71D-11     1.6


         Total DFT energy =     -230.975757869052
      One electron energy =     -711.900695298818
           Coulomb energy =      312.358146021119
    Exchange-Corr. energy =      -34.668834276696
 Nuclear repulsion energy =      203.235625685343

 Numeric. integr. density =       41.999994166889

     Total iterative time =      0.5s


 
                       DFT Final Molecular Orbital Analysis
                       ------------------------------------
 
 Vector    6  Occ=2.000000D+00  E=-1.012539D+01  Symmetry=a1g
              MO Center=  4.3D-13,  7.1D-13, -1.2D-21, r^2= 2.0D+00
   Bfn.  Coefficient  Atom+Function         Bfn.  Coefficient  Atom+Function  
  ----- ------------  ---------------      ----- ------------  ---------------
    37     -0.402314   5 C  s                10     -0.402314   2 C  s         
     1     -0.402314   1 C  s                46     -0.402314   6 C  s         
    28     -0.402314   4 C  s                19     -0.402314   3 C  s         
 
 Vector    7  Occ=2.000000D+00  E=-8.557241D-01  Symmetry=a1g
              MO Center= -8.8D-17, -6.7D-17,  9.5D-33, r^2= 2.1D+00
   Bfn.  Coefficient  Atom+Function         Bfn.  Coefficient  Atom+Function  
  ----- ------------  ---------------      ----- ------------  ---------------
    24      0.181942   3 C  s                15      0.181942   2 C  s         
     6      0.181942   1 C  s                33      0.181942   4 C  s         
    42      0.181942   5 C  s                51      0.181942   6 C  s         
 
 Vector    8  Occ=2.000000D+00  E=-7.463101D-01  Symmetry=e1u
              MO Center= -1.4D-15,  1.9D-15,  2.7D-16, r^2= 2.9D+00
   Bfn.  Coefficient  Atom+Function         Bfn.  Coefficient  Atom+Function  
  ----- ------------  ---------------      ----- ------------  ---------------
    33      0.294199   4 C  s                 6     -0.294199   1 C  s         
    51     -0.263276   6 C  s                24      0.263276   3 C  s         
 
 Vector    9  Occ=2.000000D+00  E=-7.463101D-01  Symmetry=e1u
              MO Center=  6.6D-15,  1.2D-15, -3.7D-16, r^2= 2.9D+00
   Bfn.  Coefficient  Atom+Function         Bfn.  Coefficient  Atom+Function  
  ----- ------------  ---------------      ----- ------------  ---------------
    42      0.321858   5 C  s                15     -0.321858   2 C  s         
    51     -0.187709   6 C  s                24      0.187709   3 C  s         
 
 Vector   10  Occ=2.000000D+00  E=-6.048469D-01  Symmetry=e2g
              MO Center= -1.8D-15, -5.8D-15, -1.6D-17, r^2= 3.7D+00
   Bfn.  Coefficient  Atom+Function         Bfn.  Coefficient  Atom+Function  
  ----- ------------  ---------------      ----- ------------  ---------------
    24     -0.338629   3 C  s                51     -0.338629   6 C  s         
    42      0.175752   5 C  s                15      0.175752   2 C  s         
    33      0.162877   4 C  s                 6      0.162877   1 C  s         
 
 Vector   11  Occ=2.000000D+00  E=-6.048469D-01  Symmetry=e2g
              MO Center= -3.2D-15,  1.5D-15,  3.4D-31, r^2= 3.7D+00
   Bfn.  Coefficient  Atom+Function         Bfn.  Coefficient  Atom+Function  
  ----- ------------  ---------------      ----- ------------  ---------------
     6      0.296978   1 C  s                33      0.296978   4 C  s         
    15     -0.289544   2 C  s                42     -0.289544   5 C  s         
    48      0.179601   6 C  px               21     -0.179601   3 C  px        
 
 Vector   12  Occ=2.000000D+00  E=-5.284809D-01  Symmetry=a1g
              MO Center= -1.0D-15,  4.7D-16,  5.8D-31, r^2= 4.2D+00
   Bfn.  Coefficient  Atom+Function         Bfn.  Coefficient  Atom+Function  
  ----- ------------  ---------------      ----- ------------  ---------------
    39      0.167088   5 C  px               12     -0.167088   2 C  px        
    22     -0.167088   3 C  py               49      0.167088   6 C  py        
 
 Vector   13  Occ=2.000000D+00  E=-4.605773D-01  Symmetry=b1u
              MO Center=  1.5D-16, -2.5D-16,  6.4D-32, r^2= 5.2D+00
   Bfn.  Coefficient  Atom+Function         Bfn.  Coefficient  Atom+Function  
  ----- ------------  ---------------      ----- ------------  ---------------
    24      0.268313   3 C  s                51     -0.268313   6 C  s         
     6      0.268313   1 C  s                42     -0.268313   5 C  s         
    33     -0.268313   4 C  s                15      0.268313   2 C  s         
 
 Vector   14  Occ=2.000000D+00  E=-4.528283D-01  Symmetry=b2u
              MO Center=  3.6D-16, -2.8D-17, -8.1D-31, r^2= 2.7D+00
   Bfn.  Coefficient  Atom+Function         Bfn.  Coefficient  Atom+Function  
  ----- ------------  ---------------      ----- ------------  ---------------
    48      0.239771   6 C  px               21      0.239771   3 C  px        
    40     -0.239771   5 C  py               13     -0.239771   2 C  py        
     3     -0.175525   1 C  px               30     -0.175525   4 C  px        
     4      0.175525   1 C  py               31      0.175525   4 C  py        
 
 Vector   15  Occ=2.000000D+00  E=-4.261764D-01  Symmetry=e1u
              MO Center= -6.1D-16,  5.1D-16,  2.8D-18, r^2= 4.0D+00
   Bfn.  Coefficient  Atom+Function         Bfn.  Coefficient  Atom+Function  
  ----- ------------  ---------------      ----- ------------  ---------------
    31     -0.195524   4 C  py                4     -0.195524   1 C  py        
     3     -0.179330   1 C  px               30     -0.179330   4 C  px        
    61      0.152839  10 H  s                55     -0.152839   7 H  s         
 
 Vector   16  Occ=2.000000D+00  E=-4.261764D-01  Symmetry=e1u
              MO Center=  1.4D-16,  6.9D-16, -4.9D-32, r^2= 4.0D+00
   Bfn.  Coefficient  Atom+Function         Bfn.  Coefficient  Atom+Function  
  ----- ------------  ---------------      ----- ------------  ---------------
    49      0.248700   6 C  py               22      0.248700   3 C  py        
    39     -0.213633   5 C  px               12     -0.213633   2 C  px        
    26      0.162015   3 C  py               53      0.162015   6 C  py        
 
 Vector   17  Occ=2.000000D+00  E=-3.663396D-01  Symmetry=a2u
              MO Center= -1.1D-16,  1.4D-17,  1.0D-21, r^2= 2.8D+00
   Bfn.  Coefficient  Atom+Function         Bfn.  Coefficient  Atom+Function  
  ----- ------------  ---------------      ----- ------------  ---------------
     5      0.192410   1 C  pz               14      0.192410   2 C  pz        
    23      0.192410   3 C  pz               41      0.192410   5 C  pz        
    32      0.192410   4 C  pz               50      0.192410   6 C  pz        
    36      0.167883   4 C  pz                9      0.167883   1 C  pz        
    18      0.167883   2 C  pz               54      0.167883   6 C  pz        
 
 Vector   18  Occ=2.000000D+00  E=-3.461387D-01  Symmetry=e2g
              MO Center= -8.7D-16,  6.7D-16, -4.2D-33, r^2= 4.2D+00
   Bfn.  Coefficient  Atom+Function         Bfn.  Coefficient  Atom+Function  
  ----- ------------  ---------------      ----- ------------  ---------------
    13     -0.214379   2 C  py               40      0.214379   5 C  py        
    31      0.185935   4 C  py                4     -0.185935   1 C  py        
    49      0.183551   6 C  py               22     -0.183551   3 C  py        
    56     -0.152256   7 H  s                62     -0.152256  10 H  s         
    55     -0.151526   7 H  s                61     -0.151526  10 H  s         
 
 Vector   19  Occ=2.000000D+00  E=-3.461387D-01  Symmetry=e2g
              MO Center=  4.2D-16, -1.1D-15,  1.4D-32, r^2= 4.2D+00
   Bfn.  Coefficient  Atom+Function         Bfn.  Coefficient  Atom+Function  
  ----- ------------  ---------------      ----- ------------  ---------------
    21     -0.205693   3 C  px               48      0.205693   6 C  px        
    30      0.203309   4 C  px                3     -0.203309   1 C  px        
    39      0.174864   5 C  px               12     -0.174864   2 C  px        
    64      0.158049  11 H  s                58      0.158049   8 H  s         
    63      0.157291  11 H  s                57      0.157291   8 H  s         
 
 Vector   20  Occ=2.000000D+00  E=-2.511208D-01  Symmetry=e1g
              MO Center= -4.4D-34, -1.4D-17,  3.5D-16, r^2= 3.0D+00
   Bfn.  Coefficient  Atom+Function         Bfn.  Coefficient  Atom+Function  
  ----- ------------  ---------------      ----- ------------  ---------------
    18      0.303727   2 C  pz               45     -0.303727   5 C  pz        
    14      0.290856   2 C  pz               41     -0.290856   5 C  pz        
     9     -0.178462   1 C  pz               36      0.178462   4 C  pz        
    32      0.170900   4 C  pz                5     -0.170900   1 C  pz        
 
 Vector   21  Occ=2.000000D+00  E=-2.511208D-01  Symmetry=e1g
              MO Center=  2.8D-17, -5.6D-17, -2.3D-16, r^2= 3.0D+00
   Bfn.  Coefficient  Atom+Function         Bfn.  Coefficient  Atom+Function  
  ----- ------------  ---------------      ----- ------------  ---------------
    27      0.278392   3 C  pz               54     -0.278392   6 C  pz        
    50     -0.266595   6 C  pz               23      0.266595   3 C  pz        
    36      0.247678   4 C  pz                9     -0.247678   1 C  pz        
    32      0.237182   4 C  pz                5     -0.237182   1 C  pz        
 
 Vector   22  Occ=0.000000D+00  E= 5.351730D-03  Symmetry=e2u
              MO Center=  1.1D-16, -8.3D-17,  8.3D-18, r^2= 3.3D+00
   Bfn.  Coefficient  Atom+Function         Bfn.  Coefficient  Atom+Function  
  ----- ------------  ---------------      ----- ------------  ---------------
    36      0.496103   4 C  pz                9      0.496103   1 C  pz        
    18     -0.429522   2 C  pz               45     -0.429522   5 C  pz        
     5      0.289444   1 C  pz               32      0.289444   4 C  pz        
    41     -0.250598   5 C  pz               14     -0.250598   2 C  pz        
 
 Vector   23  Occ=0.000000D+00  E= 5.351730D-03  Symmetry=e2u
              MO Center= -4.8D-34, -1.7D-16,  1.9D-17, r^2= 3.3D+00
   Bfn.  Coefficient  Atom+Function         Bfn.  Coefficient  Atom+Function  
  ----- ------------  ---------------      ----- ------------  ---------------
    27      0.534410   3 C  pz               54      0.534410   6 C  pz        
    45     -0.324865   5 C  pz               18     -0.324865   2 C  pz        
    50      0.311793   6 C  pz               23      0.311793   3 C  pz        
    36     -0.209545   4 C  pz                9     -0.209545   1 C  pz        
    41     -0.189538   5 C  pz               14     -0.189538   2 C  pz        
 
 Vector   24  Occ=0.000000D+00  E= 1.065307D-01  Symmetry=a1g
              MO Center= -1.9D-16,  3.9D-16, -1.7D-33, r^2= 7.9D+00
   Bfn.  Coefficient  Atom+Function         Bfn.  Coefficient  Atom+Function  
  ----- ------------  ---------------      ----- ------------  ---------------
    56     -0.701930   7 H  s                58     -0.701930   8 H  s         
    62     -0.701930  10 H  s                64     -0.701930  11 H  s         
    66     -0.701930  12 H  s                60     -0.701930   9 H  s         
    15      0.510106   2 C  s                42      0.510106   5 C  s         
    33      0.510106   4 C  s                 6      0.510106   1 C  s         
 
 Vector   25  Occ=0.000000D+00  E= 1.643530D-01  Symmetry=e1u
              MO Center=  6.2D-16,  1.1D-15, -4.3D-33, r^2= 8.2D+00
   Bfn.  Coefficient  Atom+Function         Bfn.  Coefficient  Atom+Function  
  ----- ------------  ---------------      ----- ------------  ---------------
    56     -1.079681   7 H  s                62      1.079681  10 H  s         
    66     -0.802364  12 H  s                60      0.802364   9 H  s         
     6      0.711248   1 C  s                33     -0.711248   4 C  s         
    51      0.528564   6 C  s                24     -0.528564   3 C  s         
     7      0.421731   1 C  px               34      0.421731   4 C  px        
 
 Vector   26  Occ=0.000000D+00  E= 1.643530D-01  Symmetry=e1u
              MO Center=  1.1D-16, -1.1D-16, -4.4D-32, r^2= 8.2D+00
   Bfn.  Coefficient  Atom+Function         Bfn.  Coefficient  Atom+Function  
  ----- ------------  ---------------      ----- ------------  ---------------
    58      1.086599   8 H  s                64     -1.086599  11 H  s         
    66      0.783463  12 H  s                60     -0.783463   9 H  s         
    15     -0.715806   2 C  s                42      0.715806   5 C  s         
    16      0.573303   2 C  px               43      0.573303   5 C  px        
    51     -0.516112   6 C  s                24      0.516112   3 C  s         
 
 Vector   27  Occ=0.000000D+00  E= 1.657436D-01  Symmetry=b2g
              MO Center=  1.4D-31,  1.7D-16, -4.5D-18, r^2= 3.5D+00
   Bfn.  Coefficient  Atom+Function         Bfn.  Coefficient  Atom+Function  
  ----- ------------  ---------------      ----- ------------  ---------------
    27     -0.539800   3 C  pz               36      0.539800   4 C  pz        
    54      0.539800   6 C  pz               45      0.539800   5 C  pz        
     9     -0.539800   1 C  pz               18     -0.539800   2 C  pz        
    41      0.251810   5 C  pz               50      0.251810   6 C  pz        
    14     -0.251810   2 C  pz                5     -0.251810   1 C  pz        
 
 Vector   28  Occ=0.000000D+00  E= 2.066887D-01  Symmetry=e2g
              MO Center= -1.5D-15, -2.0D-15, -1.7D-31, r^2= 7.9D+00
   Bfn.  Coefficient  Atom+Function         Bfn.  Coefficient  Atom+Function  
  ----- ------------  ---------------      ----- ------------  ---------------
    33      1.508471   4 C  s                 6      1.508471   1 C  s         
    62     -1.091937  10 H  s                56     -1.091937   7 H  s         
    51     -0.865780   6 C  s                24     -0.865780   3 C  s         
    42     -0.642691   5 C  s                15     -0.642691   2 C  s         
    66      0.626712  12 H  s                60      0.626712   9 H  s         
 
 Vector   29  Occ=0.000000D+00  E= 2.066887D-01  Symmetry=e2g
              MO Center=  1.6D-15,  1.4D-15,  3.0D-31, r^2= 7.9D+00
   Bfn.  Coefficient  Atom+Function         Bfn.  Coefficient  Atom+Function  
  ----- ------------  ---------------      ----- ------------  ---------------
    42      1.370774   5 C  s                15      1.370774   2 C  s         
    51     -1.241974   6 C  s                24     -1.241974   3 C  s         
    64     -0.992262  11 H  s                58     -0.992262   8 H  s         
    66      0.899028  12 H  s                60      0.899028   9 H  s         
    43      0.321569   5 C  px               16     -0.321569   2 C  px        
 
 Vector   30  Occ=0.000000D+00  E= 2.127479D-01  Symmetry=b1u
              MO Center=  5.0D-16,  1.4D-15,  8.7D-18, r^2= 8.9D+00
   Bfn.  Coefficient  Atom+Function         Bfn.  Coefficient  Atom+Function  
  ----- ------------  ---------------      ----- ------------  ---------------
    66      0.976852  12 H  s                58     -0.976852   8 H  s         
    60     -0.976852   9 H  s                64      0.976852  11 H  s         
    56     -0.976852   7 H  s                62      0.976852  10 H  s         
    53     -0.737517   6 C  py               26     -0.737517   3 C  py        
    16     -0.737517   2 C  px               43     -0.737517   5 C  px        
 
 Vector   31  Occ=0.000000D+00  E= 3.247831D-01  Symmetry=e2g
              MO Center= -3.9D-16, -1.0D-15,  7.4D-32, r^2= 4.7D+00
   Bfn.  Coefficient  Atom+Function         Bfn.  Coefficient  Atom+Function  
  ----- ------------  ---------------      ----- ------------  ---------------
    51     -1.562574   6 C  s                24     -1.562574   3 C  s         
    53      1.359777   6 C  py               26     -1.359777   3 C  py        
    42      1.193409   5 C  s                15      1.193409   2 C  s         
    16      1.127439   2 C  px               43     -1.127439   5 C  px        
    60     -0.803172   9 H  s                66     -0.803172  12 H  s         
 
 Vector   32  Occ=0.000000D+00  E= 3.247831D-01  Symmetry=e2g
              MO Center= -8.0D-16,  1.3D-15, -3.1D-32, r^2= 4.7D+00
   Bfn.  Coefficient  Atom+Function         Bfn.  Coefficient  Atom+Function  
  ----- ------------  ---------------      ----- ------------  ---------------
    33      1.591168   4 C  s                 6      1.591168   1 C  s         
    15     -1.115290   2 C  s                42     -1.115290   5 C  s         
     8     -1.090967   1 C  py               35      1.090967   4 C  py        
     7     -0.852408   1 C  px               34      0.852408   4 C  px        
    56      0.817869   7 H  s                62      0.817869  10 H  s         
 
 Vector   33  Occ=0.000000D+00  E= 3.374664D-01  Symmetry=e1u
              MO Center=  1.2D-15,  1.3D-15,  4.6D-32, r^2= 4.7D+00
   Bfn.  Coefficient  Atom+Function         Bfn.  Coefficient  Atom+Function  
  ----- ------------  ---------------      ----- ------------  ---------------
    42      1.618839   5 C  s                15     -1.618839   2 C  s         
    52     -1.250019   6 C  px               25     -1.250019   3 C  px        
     7     -1.228279   1 C  px               34     -1.228279   4 C  px        
    51     -1.160937   6 C  s                24      1.160937   3 C  s         
    35      1.152814   4 C  py                8      1.152814   1 C  py        
 
 Vector   34  Occ=0.000000D+00  E= 3.374664D-01  Symmetry=e1u
              MO Center= -4.9D-15,  4.7D-15,  2.1D-18, r^2= 4.7D+00
   Bfn.  Coefficient  Atom+Function         Bfn.  Coefficient  Atom+Function  
  ----- ------------  ---------------      ----- ------------  ---------------
    17     -1.628194   2 C  py               44     -1.628194   5 C  py        
     6      1.604905   1 C  s                33     -1.604905   4 C  s         
    51      1.199007   6 C  s                24     -1.199007   3 C  s         
    52     -1.140262   6 C  px               25     -1.140262   3 C  px        
    16     -0.485244   2 C  px               43     -0.485244   5 C  px        
 
 Vector   35  Occ=0.000000D+00  E= 5.774363D-01  Symmetry=b1u
              MO Center=  1.0D-15,  2.9D-15, -4.3D-18, r^2= 3.9D+00
   Bfn.  Coefficient  Atom+Function         Bfn.  Coefficient  Atom+Function  
  ----- ------------  ---------------      ----- ------------  ---------------
     6      2.468051   1 C  s                33     -2.468051   4 C  s         
    15      2.468051   2 C  s                42     -2.468051   5 C  s         
    51     -2.468051   6 C  s                24      2.468051   3 C  s         
    53      1.909769   6 C  py               16      1.909769   2 C  px        
    26      1.909769   3 C  py               43      1.909769   5 C  px        
 

 center of mass
 --------------
 x =   0.00000000 y =   0.00000000 z =   0.00000000

 moments of inertia (a.u.)
 ------------------
         317.315706392357           0.000000000000           0.000000000000
           0.000000000000         317.315706392357           0.000000000000
           0.000000000000           0.000000000000         634.631412784713
 
     Multipole analysis of the density
     ---------------------------------
 
     L   x y z        total         alpha         beta         nuclear
     -   - - -        -----         -----         ----         -------
     0   0 0 0      0.000000    -21.000000    -21.000000     42.000000
 
     1   1 0 0      0.000000      0.000000      0.000000      0.000000
     1   0 1 0      0.000000      0.000000      0.000000      0.000000
     1   0 0 1      0.000000      0.000000      0.000000      0.000000
 
     2   2 0 0    -23.189276   -107.279686   -107.279686    191.370096
     2   1 1 0      0.000000      0.000000      0.000000      0.000000
     2   1 0 1      0.000000      0.000000      0.000000      0.000000
     2   0 2 0    -23.189276   -107.279686   -107.279686    191.370096
     2   0 1 1      0.000000      0.000000      0.000000      0.000000
     2   0 0 2    -29.659850    -14.829925    -14.829925      0.000000
 

 Parallel integral file used       4 records with       0 large values

 Line search: 
     step= 1.00 grad=-5.0D-04 hess= 2.6D-04 energy=   -230.975758 mode=accept  
 new step= 1.00                   predicted energy=   -230.975758

          --------
          Step   1
          --------
 
 
                         Geometry "geometry" -> "geometry"
                         ---------------------------------
 
 Output coordinates in angstroms (scale by  1.889725989 to convert to a.u.)
 
  No.       Tag          Charge          X              Y              Z
 ---- ---------------- ---------- -------------- -------------- --------------
    1 C                    6.0000     0.98775669     0.98775669     0.00000000
    2 C                    6.0000    -1.34930073     0.36154404     0.00000000
    3 C                    6.0000     0.36154404    -1.34930073     0.00000000
    4 C                    6.0000    -0.98775669    -0.98775669     0.00000000
    5 C                    6.0000     1.34930073    -0.36154404     0.00000000
    6 C                    6.0000    -0.36154404     1.34930073     0.00000000
    7 H                    1.0000     1.75429068     1.75429068     0.00000000
    8 H                    1.0000    -2.39640564     0.64211496     0.00000000
[...]
          25     0.00000     0.00000     0.00000     0.00000     0.03183     0.00000
          26     0.00000     0.00000     0.00000     0.00000    -0.11879     0.00000
          27    -0.42647     0.28215    -0.41107     0.25121     0.00000    -0.35037
          28     0.00000     0.00000     0.00000     0.00000    -0.08696     0.00000
          29     0.00000     0.00000     0.00000     0.00000    -0.08696     0.00000
          30     0.03111     0.51041    -0.01201    -0.48160     0.00000     0.35037
          31     0.00000     0.00000     0.00000     0.00000     0.11879     0.00000
          32     0.00000     0.00000     0.00000     0.00000    -0.03183     0.00000
          33    -0.45759    -0.22825     0.42309     0.23040     0.00000     0.35037
          34     0.00000     0.00000     0.00000     0.00000    -0.03183     0.00000
          35     0.00000     0.00000     0.00000     0.00000     0.11880     0.00000
          36     0.42647    -0.28215    -0.41107     0.25121     0.00000     0.35037

                   19          20          21          22          23          24
 
 P.Frequency     1064.35     1068.86     1068.87     1228.18     1238.03     1238.03
 
           1    -0.08016    -0.04808     0.06798    -0.03116     0.00224    -0.04571
           2    -0.08016     0.05107     0.06576     0.03116     0.00021     0.04577
           3     0.00000     0.00000     0.00000     0.00000     0.00000     0.00000
           4     0.10937     0.08895     0.02817    -0.01141     0.01518     0.00726
           5    -0.02923     0.01105    -0.07122    -0.04257     0.05319     0.03283
           6     0.00000     0.00000     0.00000     0.00000     0.00000     0.00000
           7    -0.02923    -0.01422    -0.07065     0.04257     0.05459    -0.03043
           8     0.10936    -0.08761     0.03211     0.01141     0.01549    -0.00658
           9     0.00000     0.00000     0.00000     0.00000     0.00000     0.00000
          10    -0.08016    -0.04808     0.06797    -0.03116    -0.00224     0.04571
          11    -0.08016     0.05107     0.06576     0.03116    -0.00021    -0.04577
          12     0.00000     0.00000     0.00000     0.00000     0.00000     0.00000
          13     0.10937     0.08895     0.02817    -0.01141    -0.01518    -0.00726
          14    -0.02923     0.01105    -0.07122    -0.04257    -0.05319    -0.03283
          15     0.00000     0.00000     0.00000     0.00000     0.00000     0.00000
          16    -0.02923    -0.01422    -0.07066     0.04257    -0.05459     0.03043
          17     0.10936    -0.08761     0.03211     0.01141    -0.01549     0.00658
          18     0.00000     0.00000     0.00000     0.00000     0.00000     0.00000
          19    -0.07962    -0.27685     0.07764    -0.26669     0.00944    -0.37462
          20    -0.07959     0.28004     0.06520     0.26669    -0.00721     0.37467
          21     0.00000     0.00000     0.00000     0.00000     0.00000     0.00000
          22     0.10869     0.13467    -0.04233    -0.09762     0.11802     0.06991
          23    -0.02872     0.15986    -0.34626    -0.36431     0.43731     0.26608
          24     0.00000     0.00000     0.00000     0.00000     0.00000     0.00000
          25    -0.02873    -0.17516    -0.33877     0.36431     0.44870    -0.24640
          26     0.10867    -0.13644    -0.03627     0.09762     0.12101    -0.06459
          27     0.00000     0.00000     0.00000     0.00000     0.00000     0.00000
          28    -0.07962    -0.27685     0.07764    -0.26669    -0.00944     0.37462
          29    -0.07960     0.28005     0.06520     0.26669     0.00721    -0.37467
          30     0.00000     0.00000     0.00000     0.00000     0.00000     0.00000
          31     0.10869     0.13467    -0.04233    -0.09762    -0.11802    -0.06990
          32    -0.02872     0.15986    -0.34626    -0.36431    -0.43731    -0.26608
          33     0.00000     0.00000     0.00000     0.00000     0.00000     0.00000
          34    -0.02873    -0.17517    -0.33878     0.36431    -0.44870     0.24640
          35     0.10867    -0.13643    -0.03627     0.09762    -0.12101     0.06459
          36     0.00000     0.00000     0.00000     0.00000     0.00000     0.00000

                   25          26          27          28          29          30
 
 P.Frequency     1316.59     1436.66     1540.30     1540.30     1627.24     1627.24
 
           1    -0.07729     0.03813     0.07189     0.04076    -0.03401    -0.10363
           2     0.07729    -0.03813    -0.06976     0.04430    -0.05755     0.09264
           3     0.00000     0.00000     0.00000     0.00000     0.00000     0.00000
           4    -0.02829     0.01396    -0.06311     0.00818    -0.05803    -0.04368
           5    -0.10558     0.05209    -0.03718    -0.09070    -0.11750     0.06862
           6     0.00000     0.00000     0.00000     0.00000     0.00000     0.00000
           7     0.10558    -0.05209     0.03260    -0.09244    -0.09794    -0.09446
           8     0.02829    -0.01396     0.06344     0.00502    -0.06672     0.02872
           9     0.00000     0.00000     0.00000     0.00000     0.00000     0.00000
          10    -0.07729    -0.03813     0.07189     0.04076     0.03401     0.10363
          11     0.07729     0.03813    -0.06976     0.04430     0.05755    -0.09264
          12     0.00000     0.00000     0.00000     0.00000     0.00000     0.00000
          13    -0.02829    -0.01396    -0.06311     0.00818     0.05803     0.04368
          14    -0.10558    -0.05209    -0.03718    -0.09070     0.11750    -0.06862
          15     0.00000     0.00000     0.00000     0.00000     0.00000     0.00000
          16     0.10558     0.05209     0.03261    -0.09244     0.09794     0.09446
          17     0.02829     0.01396     0.06344     0.00502     0.06672    -0.02872
          18     0.00000     0.00000     0.00000     0.00000     0.00000     0.00000
          19     0.10753    -0.25568    -0.28390     0.05885    -0.06734     0.13860
          20    -0.10753     0.25568     0.28648     0.04460    -0.03265    -0.15059
          21     0.00000     0.00000     0.00000     0.00000     0.00000     0.00000
          22     0.03936    -0.09359    -0.00586     0.12596     0.02195    -0.08421
          23     0.14689    -0.34927     0.21938     0.32265     0.19015    -0.06129
          24     0.00000     0.00000     0.00000     0.00000     0.00000     0.00000
          25    -0.14689     0.34927    -0.20300     0.33320     0.17026     0.10452
          26    -0.03936     0.09359     0.01214     0.12551     0.00142     0.08701
          27     0.00000     0.00000     0.00000     0.00000     0.00000     0.00000
          28     0.10753     0.25568    -0.28390     0.05885     0.06734    -0.13859
          29    -0.10753    -0.25568     0.28648     0.04460     0.03265     0.15059
          30     0.00000     0.00000     0.00000     0.00000     0.00000     0.00000
          31     0.03936     0.09359    -0.00586     0.12596    -0.02195     0.08421
          32     0.14689     0.34926     0.21938     0.32265    -0.19015     0.06129
          33     0.00000     0.00000     0.00000     0.00000     0.00000     0.00000
          34    -0.14689    -0.34926    -0.20300     0.33320    -0.17026    -0.10452
          35    -0.03936    -0.09359     0.01214     0.12551    -0.00142    -0.08701
          36     0.00000     0.00000     0.00000     0.00000     0.00000     0.00000

                   31          32          33          34          35          36
 
 P.Frequency     3182.97     3191.71     3191.71     3208.18     3208.18     3221.46
 
           1     0.02305    -0.03292    -0.00363    -0.00234    -0.03444    -0.02520
           2     0.02305    -0.03262    -0.00571     0.00180    -0.03447    -0.02520
           3     0.00000     0.00000     0.00000     0.00000     0.00000     0.00000
           4    -0.03148    -0.02821     0.03534     0.04096    -0.02320     0.03443
           5     0.00844     0.00635    -0.01042    -0.00944     0.00883    -0.00922
           6     0.00000     0.00000     0.00000     0.00000     0.00000     0.00000
           7     0.00844     0.00318     0.01178     0.00958     0.00868    -0.00922
           8    -0.03148    -0.01721    -0.04181    -0.04132    -0.02255     0.03443
           9     0.00000     0.00000     0.00000     0.00000     0.00000     0.00000
          10     0.02305     0.03292     0.00363    -0.00234    -0.03444     0.02520
          11     0.02305     0.03262     0.00571     0.00180    -0.03447     0.02520
          12     0.00000     0.00000     0.00000     0.00000     0.00000     0.00000
          13    -0.03148     0.02821    -0.03534     0.04096    -0.02320    -0.03443
          14     0.00844    -0.00635     0.01042    -0.00944     0.00883     0.00922
          15     0.00000     0.00000     0.00000     0.00000     0.00000     0.00000
          16     0.00844    -0.00318    -0.01178     0.00958     0.00868     0.00922
          17    -0.03148     0.01721     0.04181    -0.04132    -0.02255    -0.03443
          18     0.00000     0.00000     0.00000     0.00000     0.00000     0.00000
          19    -0.27633     0.38660     0.05344     0.00626     0.38878     0.27408
          20    -0.27633     0.38614     0.05672    -0.00016     0.38883     0.27408
          21     0.00000     0.00000     0.00000     0.00000     0.00000     0.00000
          22     0.37749     0.32952    -0.41908    -0.45846     0.26814    -0.37442
          23    -0.10115    -0.08638     0.11379     0.12047    -0.07589     0.10032
          24     0.00000     0.00000     0.00000     0.00000     0.00000     0.00000
          25    -0.10115    -0.05114    -0.13340    -0.12164    -0.07399     0.10032
          26     0.37749     0.19928     0.49446     0.46262     0.26092    -0.37442
          27     0.00000     0.00000     0.00000     0.00000     0.00000     0.00000
          28    -0.27634    -0.38660    -0.05344     0.00626     0.38878    -0.27408
          29    -0.27634    -0.38613    -0.05672    -0.00016     0.38883    -0.27408
          30     0.00000     0.00000     0.00000     0.00000     0.00000     0.00000
          31     0.37748    -0.32953     0.41908    -0.45846     0.26815     0.37441
          32    -0.10115     0.08639    -0.11379     0.12047    -0.07590    -0.10032
          33     0.00000     0.00000     0.00000     0.00000     0.00000     0.00000
          34    -0.10115     0.05115     0.13340    -0.12164    -0.07400    -0.10032
          35     0.37748    -0.19929    -0.49447     0.46261     0.26092     0.37441
          36     0.00000     0.00000     0.00000     0.00000     0.00000     0.00000



 ----------------------------------------------------------------------------
 Normal Eigenvalue ||    Projected Derivative Dipole Moments (debye/angs)
  Mode   [cm**-1]  ||      [d/dqX]             [d/dqY]           [d/dqZ]
 ------ ---------- || ------------------ ------------------ -----------------
    1        0.000 ||       0.000               0.000             0.000
    2        0.000 ||       0.000               0.000             0.000
    3        0.000 ||       0.000               0.000             0.000
    4        0.000 ||       0.000               0.000             0.000
    5        0.000 ||       0.000               0.000             0.000
    6        0.000 ||       0.000               0.000             0.000
    7      423.207 ||       0.000               0.000             0.000
    8      423.212 ||       0.000               0.000             0.000
    9      647.701 ||       0.000               0.000             0.000
   10      647.704 ||       0.000               0.000             0.000
   11      698.897 ||       0.000               0.000             1.668
   12      754.398 ||       0.000               0.000             0.000
   13      878.136 ||       0.000               0.000             0.000
   14      878.141 ||       0.000               0.000             0.000
   15     1007.877 ||       0.000               0.000             0.000
   16     1007.878 ||       0.000               0.000             0.000
   17     1014.906 ||       0.000               0.000             0.000
   18     1048.301 ||       0.000               0.000             0.000
   19     1064.353 ||       0.000               0.000             0.000
   20     1068.864 ||      -0.223               0.213             0.000
   21     1068.874 ||       0.213               0.223             0.000
   22     1228.183 ||       0.000               0.000             0.000
   23     1238.025 ||       0.000               0.000             0.000
   24     1238.026 ||       0.000               0.000             0.000
   25     1316.586 ||       0.000               0.000             0.000
   26     1436.664 ||       0.000               0.000             0.000
   27     1540.297 ||      -0.363               0.381             0.000
   28     1540.300 ||       0.381               0.363             0.000
   29     1627.244 ||       0.000               0.000             0.000
   30     1627.245 ||       0.000               0.000             0.000
   31     3182.973 ||       0.000               0.000             0.000
   32     3191.711 ||       0.000               0.000             0.000
   33     3191.711 ||       0.000               0.000             0.000
   34     3208.175 ||       0.627              -0.637             0.000
   35     3208.181 ||      -0.637              -0.627             0.000
   36     3221.461 ||       0.000               0.000             0.000
 ----------------------------------------------------------------------------



  
  
 ----------------------------------------------------------------------------
 Normal Eigenvalue ||           Projected Infra Red Intensities
  Mode   [cm**-1]  || [atomic units] [(debye/angs)**2] [(KM/mol)] [arbitrary]
 ------ ---------- || -------------- ----------------- ---------- -----------
    1        0.000 ||    0.000000           0.000         0.000       0.000
    2        0.000 ||    0.000000           0.000         0.000       0.000
    3        0.000 ||    0.000000           0.000         0.000       0.000
    4        0.000 ||    0.000000           0.000         0.000       0.000
    5        0.000 ||    0.000000           0.000         0.000       0.000
    6        0.000 ||    0.000000           0.000         0.000       0.000
    7      423.207 ||    0.000000           0.000         0.000       0.000
    8      423.212 ||    0.000000           0.000         0.000       0.000
    9      647.701 ||    0.000000           0.000         0.000       0.000
   10      647.704 ||    0.000000           0.000         0.000       0.000
   11      698.897 ||    0.120602           2.782       117.569     195.465
   12      754.398 ||    0.000000           0.000         0.000       0.000
   13      878.136 ||    0.000000           0.000         0.000       0.000
   14      878.141 ||    0.000000           0.000         0.000       0.000
   15     1007.877 ||    0.000000           0.000         0.000       0.000
   16     1007.878 ||    0.000000           0.000         0.000       0.000
   17     1014.906 ||    0.000000           0.000         0.000       0.000
   18     1048.301 ||    0.000000           0.000         0.000       0.000
   19     1064.353 ||    0.000000           0.000         0.000       0.000
   20     1068.864 ||    0.004133           0.095         4.029       6.698
   21     1068.874 ||    0.004133           0.095         4.029       6.698
   22     1228.183 ||    0.000000           0.000         0.000       0.000
   23     1238.025 ||    0.000000           0.000         0.000       0.000
   24     1238.026 ||    0.000000           0.000         0.000       0.000
   25     1316.586 ||    0.000000           0.000         0.000       0.000
   26     1436.664 ||    0.000000           0.000         0.000       0.000
   27     1540.297 ||    0.012006           0.277        11.704      19.459
   28     1540.300 ||    0.012006           0.277        11.704      19.458
   29     1627.244 ||    0.000000           0.000         0.000       0.000
   30     1627.245 ||    0.000000           0.000         0.000       0.000
   31     3182.973 ||    0.000000           0.000         0.000       0.000
   32     3191.711 ||    0.000000           0.000         0.000       0.000
   33     3191.711 ||    0.000000           0.000         0.000       0.000
   34     3208.175 ||    0.034621           0.799        33.750      56.112
   35     3208.181 ||    0.034621           0.799        33.750      56.111
   36     3221.461 ||    0.000000           0.000         0.000       0.000
 ----------------------------------------------------------------------------



 vib:animation  F

 Task  times  cpu:      223.1s     wall:      231.7s
 
 
                                NWChem Input Module
                                -------------------
 
 
 Summary of allocated global arrays
-----------------------------------
  No active global arrays



                         GA Statistics for process    0
                         ------------------------------

       create   destroy   get      put      acc     scatter   gather  read&inc
calls: 5096     5096     8.05e+05 5.09e+04 9.72e+05  938        0        0     
number of processes/call 1.03e+00 1.34e+00 1.19e+00 1.46e+00 0.00e+00
bytes total:             3.76e+08 3.58e+07 3.88e+08 6.99e+06 0.00e+00 0.00e+00
bytes remote:            2.38e+08 1.49e+07 2.82e+08 -4.58e+05 0.00e+00 0.00e+00
Max memory consumed for GA by this process: 3414832 bytes
 
MA_summarize_allocated_blocks: starting scan ...
MA_summarize_allocated_blocks: scan completed: 0 heap blocks, 0 stack blocks
MA usage statistics:

	allocation statistics:
					      heap	     stack
					      ----	     -----
	current number of blocks	         0	         0
	maximum number of blocks	        25	        53
	current total bytes		         0	         0
	maximum total bytes		   4257304	  66443488
	maximum total K-bytes		      4258	     66444
	maximum total M-bytes		         5	        67
 
 
                                     CITATION
                                     --------
                Please cite the following reference when publishing
                           results obtained with NWChem:
 
                 M. Valiev, E.J. Bylaska, N. Govind, K. Kowalski,
              T.P. Straatsma, H.J.J. van Dam, D. Wang, J. Nieplocha,
                        E. Apra, T.L. Windus, W.A. de Jong
                 "NWChem: a comprehensive and scalable open-source
                  solution for large scale molecular simulations"
                      Comput. Phys. Commun. 181, 1477 (2010)
                           doi:10.1016/j.cpc.2010.04.018
 
                              AUTHORS & CONTRIBUTORS
                              ----------------------
      E. J. Bylaska, W. A. de Jong, N. Govind, K. Kowalski, T. P. Straatsma,
     M. Valiev, H. J. J. van Dam, D. Wang, E. Apra, T. L. Windus, J. Hammond,
     J. Autschbach, P. Nichols, S. Hirata, M. T. Hackler, Y. Zhao, P.-D. Fan,
      R. J. Harrison, M. Dupuis, D. M. A. Smith, K. Glaesemann, J. Nieplocha,
      V. Tipparaju, M. Krishnan, A. Vazquez-Mayagoitia, L. Jensen, M. Swart,
      Q. Wu, T. Van Voorhis, A. A. Auer, M. Nooijen, L. D. Crosby, E. Brown,
             G. Cisneros, G. I. Fann, H. Fruchtl, J. Garza, K. Hirao,
        R. Kendall, J. A. Nichols, K. Tsemekhman, K. Wolinski, J. Anchell,
       D. Bernholdt, P. Borowski, T. Clark, D. Clerc, H. Dachsel, M. Deegan,
        K. Dyall, D. Elwood, E. Glendening, M. Gutowski, A. Hess, J. Jaffe,
        B. Johnson, J. Ju, R. Kobayashi, R. Kutteh, Z. Lin, R. Littlefield,
    X. Long, B. Meng, T. Nakajima, S. Niu, L. Pollack, M. Rosing, G. Sandrone,
       M. Stave, H. Taylor, G. Thomas, J. H. van Lenthe, A. Wong, Z. Zhang.

 Total times  cpu:      225.7s     wall:      235.7s
