 argument  1 = ecp.nw
 


============================== echo of input deck ==============================
echo
title "tutorial demonstrating ECP usage"

start ecpchho

geometry units au
  C         0.000000  0.000000 -1.025176
  O         0.000000  0.000000  1.280289
  H         0.000000  1.767475 -2.045628
  H         0.000000 -1.767475 -2.045628
end

basis
  C  SP
   0.1675097360D+02 -0.7812840500D-01  0.3088908800D-01
   0.2888377460D+01 -0.3741108860D+00  0.2645728130D+00
   0.6904575040D+00  0.1229059640D+01  0.8225024920D+00
  C  SP
   0.1813976910D+00  0.1000000000D+01  0.1000000000D+01
  C  D
   0.8000000000D+00  0.1000000000D+01
  C  F
   0.1000000000D+01  0.1000000000D+01
  O  SP
   0.1842936330D+02 -0.1218775590D+00  0.5975796600D-01
   0.4047420810D+01 -0.1962142380D+00  0.3267825930D+00
   0.1093836980D+01  0.1156987900D+01  0.7484058930D+00
  O  SP
   0.2906290230D+00  0.1000000000D+01  0.1000000000D+01
  O  D
   0.8000000000D+00  0.1000000000D+01
  O  F
   0.1100000000D+01  0.1000000000D+01
  H  S
   0.1873113696D+02  0.3349460434D-01
   0.2825394365D+01  0.2347269535D+00
   0.6401216923D+00  0.8137573262D+00
  H  S
   0.1612777588D+00  0.1000000000D+01
end

ecp
  C nelec 2
  C ul
        1       80.0000000       -1.60000000
        1       30.0000000       -0.40000000
        2        0.5498205       -0.03990210
  C s
        0        0.7374760        0.63810832
        0      135.2354832       11.00916230
        2        8.5605569       20.13797020
  C p
        2       10.6863587       -3.24684280
        2       23.4979897        0.78505765
  O nelec 2
  O ul
        1       80.0000000       -1.60000000
        1       30.0000000       -0.40000000
        2        1.0953760       -0.06623814
  O s
        0        0.9212952        0.39552179
        0       28.6481971        2.51654843
        2        9.3033500       17.04478500
  O p
        2       52.3427019       27.97790770
        2       30.7220233      -16.49630500
end

dft
  xc b3lyp
  iterations 100
end

task dft
================================================================================


                                         
                                         
 
 
              Northwest Computational Chemistry Package (NWChem) 6.0
              ------------------------------------------------------
 
 
                    Environmental Molecular Sciences Laboratory
                       Pacific Northwest National Laboratory
                                Richland, WA 99352
 
                              Copyright (c) 1994-2010
                       Pacific Northwest National Laboratory
                            Battelle Memorial Institute
 
             NWChem is an open-source computational chemistry package
                        distributed under the terms of the
                      Educational Community License (ECL) 2.0
             A copy of the license is included with this distribution
                              in the LICENSE.TXT file
 
                                  ACKNOWLEDGMENT
                                  --------------

            This software and its documentation were developed at the
            EMSL at Pacific Northwest National Laboratory, a multiprogram
            national laboratory, operated for the U.S. Department of Energy
            by Battelle under Contract Number DE-AC05-76RL01830. Support
            for this work was provided by the Department of Energy Office
            of Biological and Environmental Research, Office of Basic
            Energy Sciences, and the Office of Advanced Scientific Computing.


           Job information
           ---------------

    hostname      = curie
    program       = ../../../bin/LINUX64/nwchem
    date          = Mon Nov 15 18:03:30 2010

    compiled      = Mon_Nov_15_10:21:04_2010
    source        = /home/niri/nwchem/nwchem-6.0
    nwchem branch = 6.0
    input         = ecp.nw
    prefix        = ecpchho.
    data base     = ./ecpchho.db
    status        = startup
    nproc         =        4
    time left     =     -1s



           Memory information
           ------------------

    heap     =   13107201 doubles =    100.0 Mbytes
    stack    =   13107201 doubles =    100.0 Mbytes
    global   =   26214400 doubles =    200.0 Mbytes (distinct from heap & stack)
    total    =   52428802 doubles =    400.0 Mbytes
    verify   = yes
    hardfail = no 


           Directory information
           ---------------------
 
  0 permanent = .
  0 scratch   = .
 
 
 
 
                                NWChem Input Module
                                -------------------
 
 
                         tutorial demonstrating ECP usage
                         --------------------------------
 C2V symmetry detected

          ------
          auto-z
          ------
  Looking for out-of-plane bends
 
 
                             Geometry "geometry" -> ""
                             -------------------------
 
 Output coordinates in a.u. (scale by  1.000000000 to convert to a.u.)
 
  No.       Tag          Charge          X              Y              Z
 ---- ---------------- ---------- -------------- -------------- --------------
    1 C                    6.0000     0.00000000     0.00000000    -1.02517600
    2 O                    8.0000     0.00000000     0.00000000     1.28028900
    3 H                    1.0000     0.00000000     1.76747500    -2.04562800
    4 H                    1.0000     0.00000000    -1.76747500    -2.04562800
 
      Atomic Mass 
      ----------- 
 
      C                 12.000000
      O                 15.994910
      H                  1.007825
 

 Effective nuclear repulsion energy (a.u.)      31.2308308970

            Nuclear Dipole moment (a.u.) 
            ----------------------------
        X                 Y               Z
 ---------------- ---------------- ----------------
     0.0000000000     0.0000000000     0.0000000000
 
      Symmetry information
      --------------------
 
 Group name             C2v       
 Group number             16
 Group order               4
 No. of unique centers     3
 
      Symmetry unique atoms
 
     1    2    3
 


                                Z-matrix (autoz)
                                -------- 

 Units are Angstrom for bonds and degrees for angles
 
      Type          Name      I     J     K     L     M      Value
      ----------- --------  ----- ----- ----- ----- ----- ----------
    1 Stretch                  1     2                       1.22000
    2 Stretch                  1     3                       1.08000
    3 Stretch                  1     4                       1.08000
    4 Bend                     2     1     3               120.00000
    5 Bend                     2     1     4               120.00000
    6 Bend                     3     1     4               120.00001
    7 Torsion                  2     1     3     4         180.00000
    8 Torsion                  2     1     4     3         180.00000
    9 Torsion                  3     1     2     4         180.00000
   10 Torsion                  2     4     1     3         180.00000
   11 Torsion                  3     2     1     4         180.00000
   12 Torsion                  2     3     1     4         180.00000
 
 
            XYZ format geometry
            -------------------
     4
 geometry
 C                     0.00000000     0.00000000    -0.54249982
 O                     0.00000000     0.00000000     0.67749981
 H                     0.00000000     0.93530756    -1.08249980
 H                     0.00000000    -0.93530756    -1.08249980
 
 ==============================================================================
                                internuclear distances
 ------------------------------------------------------------------------------
       center one      |      center two      | atomic units |       a.u.
 ------------------------------------------------------------------------------
    2 O                |   1 C                |     2.30546  |     2.30546
    3 H                |   1 C                |     2.04090  |     2.04090
    4 H                |   1 C                |     2.04090  |     2.04090
 ------------------------------------------------------------------------------
                         number of included internuclear distances:          3
 ==============================================================================



 ==============================================================================
                                 internuclear angles
 ------------------------------------------------------------------------------
        center 1       |       center 2       |       center 3       |  degrees
 ------------------------------------------------------------------------------
    2 O                |   1 C                |   3 H                |   120.00
    2 O                |   1 C                |   4 H                |   120.00
    3 H                |   1 C                |   4 H                |   120.00
 ------------------------------------------------------------------------------
                            number of included internuclear angles:          3
 ==============================================================================



  library name resolved from: environment
  library file name is: </home/niri/nwchem/nwchem-6.0/src/basis/libraries/>
  
                      Basis "ao basis" -> "" (cartesian)
                      -----
  C (Carbon)
  ----------
            Exponent  Coefficients 
       -------------- ---------------------------------------------------------
  1 S  1.67509736E+01 -0.078128
  1 S  2.88837746E+00 -0.374111
  1 S  6.90457504E-01  1.229060
 
  2 P  1.67509736E+01  0.030889
  2 P  2.88837746E+00  0.264573
  2 P  6.90457504E-01  0.822502
 
  3 S  1.81397691E-01  1.000000
 
  4 P  1.81397691E-01  1.000000
 
  5 D  8.00000000E-01  1.000000
 
  6 F  1.00000000E+00  1.000000
 
  O (Oxygen)
  ----------
            Exponent  Coefficients 
       -------------- ---------------------------------------------------------
  1 S  1.84293633E+01 -0.121878
  1 S  4.04742081E+00 -0.196214
  1 S  1.09383698E+00  1.156988
 
  2 P  1.84293633E+01  0.059758
  2 P  4.04742081E+00  0.326783
  2 P  1.09383698E+00  0.748406
 
  3 S  2.90629023E-01  1.000000
 
  4 P  2.90629023E-01  1.000000
 
  5 D  8.00000000E-01  1.000000
 
  6 F  1.10000000E+00  1.000000
 
  H (Hydrogen)
  ------------
            Exponent  Coefficients 
       -------------- ---------------------------------------------------------
  1 S  1.87311370E+01  0.033495
  1 S  2.82539437E+00  0.234727
  1 S  6.40121692E-01  0.813757
 
  2 S  1.61277759E-01  1.000000
 


 Summary of "ao basis" -> "" (cartesian)
 ------------------------------------------------------------------------------
       Tag                 Description            Shells   Functions and Types
 ---------------- ------------------------------  ------  ---------------------
 C                       user specified              6       24   2s2p1d1f
 O                       user specified              6       24   2s2p1d1f
 H                       user specified              2        2   2s


  library name resolved from: environment
  library file name is: </home/niri/nwchem/nwchem-6.0/src/basis/libraries/>
  
                 ECP       "ecp basis" -> "" (cartesian)
                -----
  C (Carbon) Replaces     2 electrons
  -----------------------------------
          R-exponent    Exponent     Coefficients 
         ------------ ---------------------------------------------------------
  1 U L      1.00       80.000000      -1.600000
  1 U L      1.00       30.000000      -0.400000
  1 U L      2.00        0.549820      -0.039902
 
  2 U-s      0.00        0.737476       0.638108
  2 U-s      0.00      135.235483      11.009162
  2 U-s      2.00        8.560557      20.137970
 
  3 U-p      2.00       10.686359      -3.246843
  3 U-p      2.00       23.497990       0.785058
 
  O (Oxygen) Replaces     2 electrons
  -----------------------------------
          R-exponent    Exponent     Coefficients 
         ------------ ---------------------------------------------------------
  1 U L      1.00       80.000000      -1.600000
  1 U L      1.00       30.000000      -0.400000
  1 U L      2.00        1.095376      -0.066238
 
  2 U-s      0.00        0.921295       0.395522
  2 U-s      0.00       28.648197       2.516548
  2 U-s      2.00        9.303350      17.044785
 
  3 U-p      2.00       52.342702      27.977908
  3 U-p      2.00       30.722023     -16.496305
 
 
                                 NWChem DFT Module
                                 -----------------
 
 
                         tutorial demonstrating ECP usage
 
 
  Caching 1-el integrals 
 
            General Information
            -------------------
          SCF calculation type: DFT
          Wavefunction type:  closed shell.
          No. of atoms     :     4
          No. of electrons :    12
           Alpha electrons :     6
            Beta electrons :     6
          Charge           :     0
          Spin multiplicity:     1
          Use of symmetry is: on ; symmetry adaption is: on 
          Maximum number of iterations: 100
          AO basis - number of functions:    52
                     number of shells:    16
          Convergence on energy requested: 1.00D-06
          Convergence on density requested: 1.00D-05
          Convergence on gradient requested: 5.00D-04
 
              XC Information
              --------------
                         B3LYP Method XC Potential
                     Hartree-Fock (Exact) Exchange  0.200          
                        Slater Exchange Functional  0.800 local    
                    Becke 1988 Exchange Functional  0.720 non-local
              Lee-Yang-Parr Correlation Functional  0.810          
                  VWN I RPA Correlation Functional  0.190 local    
 
             Grid Information
             ----------------
          Grid used for XC integration:  medium    
          Radial quadrature: Mura-Knowles        
          Angular quadrature: Lebedev. 
          Tag              B.-S. Rad. Rad. Pts. Rad. Cut. Ang. Pts.
          ---              ---------- --------- --------- ---------
          C                   0.70       49           6.0       434
          O                   0.60       49           7.0       434
          H                   0.35       45           7.0       434
          Grid pruning is: on 
          Number of quadrature shells:   143
          Spatial weights used:  Erf1
 
          Convergence Information
          -----------------------
          Convergence aids based upon iterative change in 
          total energy or number of iterations. 
          Levelshifting, if invoked, occurs when the 
          HOMO/LUMO gap drops below (HL_TOL): 1.00D-02
          DIIS, if invoked, will attempt to extrapolate 
          using up to (NFOCK): 10 stored Fock matrices.

                    Damping( 0%)  Levelshifting(0.5)       DIIS
                  --------------- ------------------- ---------------
          dE  on:    start            ASAP                start   
          dE off:    2 iters        100 iters           100 iters 

 
      Screening Tolerance Information
      -------------------------------
          Density screening/tol_rho: 1.00D-10
          AO Gaussian exp screening on grid/accAOfunc:  14
          CD Gaussian exp screening on grid/accCDfunc:  20
          XC Gaussian exp screening on grid/accXCfunc:  20
          Schwarz screening/accCoul: 1.00D-08

 
      Superposition of Atomic Density Guess
      -------------------------------------
 
 Sum of atomic energies:         -24.24860473
 
      Non-variational initial energy
      ------------------------------

 Total energy =     -21.983204
 1-e energy   =     -70.018837
 2-e energy   =      30.236790
 HOMO         =      -0.329018
 LUMO         =      -0.032898
 
 
      Symmetry analysis of molecular orbitals - initial
      -------------------------------------------------
 
  Numbering of irreducible representations: 
 
     1 a1          2 a2          3 b1          4 b2      
 
  Orbital symmetries:
 
     1 a1          2 a1          3 b2          4 a1          5 b1      
     6 b2          7 b1          8 a1          9 b2         10 a1      
    11 b1         12 a1         13 b2         14 a1         15 a1      
    16 b2      
 
   Time after variat. SCF:      0.1
   Time prior to 1st pass:      0.1

 Integral file          = ./ecpchho.aoints.0
 Record size in doubles =  65536        No. of integs per rec  =  43688
 Max. records in memory =      4        Max. records in file   =   3200
 No. of bits per label  =      8        No. of bits per value  =     64


 #quartets = 6.508D+03 #integrals = 2.877D+05 #direct =  0.0% #cached =100.0%


File balance: exchanges=     0  moved=     0  time=   0.0


 Grid_pts file          = ./ecpchho.gridpts.0
 Record size in doubles =  12289        No. of grid_pts per rec  =   3070
 Max. records in memory =      7        Max. recs in file   =     17073


           Memory utilization after 1st SCF pass: 
           Heap Space remaining (MW):       12.74            12744717
          Stack Space remaining (MW):       13.11            13106825

   convergence    iter        energy       DeltaE   RMS-Dens  Diis-err    time
 ---------------- ----- ----------------- --------- --------- ---------  ------
 d= 0,ls=0.0,diis     1    -22.8995282531 -4.07D+01  2.77D-02  6.73D-01     0.3
 d= 0,ls=0.0,diis     2    -22.6105180963  2.89D-01  1.94D-02  3.72D+00     0.3
 d= 0,ls=0.0,diis     3    -22.9901842535 -3.80D-01  1.50D-03  8.95D-03     0.4
 d= 0,ls=0.0,diis     4    -22.9909646058 -7.80D-04  7.13D-04  2.24D-03     0.4
 d= 0,ls=0.0,diis     5    -22.9911905435 -2.26D-04  6.63D-05  2.02D-05     0.5
 d= 0,ls=0.0,diis     6    -22.9911929881 -2.44D-06  1.66D-05  1.41D-06     0.6
 d= 0,ls=0.0,diis     7    -22.9911931282 -1.40D-07  2.58D-06  3.55D-08     0.6


         Total DFT energy =      -22.991193128245
      One electron energy =      -71.539510314097
           Coulomb energy =       36.728182845602
    Exchange-Corr. energy =       -5.978708584892
 Nuclear repulsion energy =       17.798842925142

 Numeric. integr. density =       12.000000194682

     Total iterative time =      0.5s


 
                       DFT Final Molecular Orbital Analysis
                       ------------------------------------
 
 Vector    1  Occ=2.000000D+00  E=-1.033245D+00  Symmetry=a1
              MO Center= -2.1D-19, -7.7D-20,  3.2D-01, r^2= 4.8D-01
   Bfn.  Coefficient  Atom+Function         Bfn.  Coefficient  Atom+Function  
  ----- ------------  ---------------      ----- ------------  ---------------
    25      0.392800  2 O  s                 29      0.362026  2 O  s          
     4      0.175738  1 C  pz                28     -0.164360  2 O  pz         
     1      0.157809  1 C  s          
 
 Vector    2  Occ=2.000000D+00  E=-6.415900D-01  Symmetry=a1
              MO Center=  1.8D-34, -5.2D-18, -7.0D-01, r^2= 1.2D+00
   Bfn.  Coefficient  Atom+Function         Bfn.  Coefficient  Atom+Function  
  ----- ------------  ---------------      ----- ------------  ---------------
     5     -0.396403  1 C  s                  1     -0.242938  1 C  s          
    29      0.239743  2 O  s                  4      0.200401  1 C  pz         
    25      0.183053  2 O  s                 49     -0.182283  3 H  s          
    51     -0.182283  4 H  s          
 
 Vector    3  Occ=2.000000D+00  E=-5.077173D-01  Symmetry=b2
              MO Center=  8.6D-19,  5.3D-16, -4.9D-01, r^2= 1.3D+00
   Bfn.  Coefficient  Atom+Function         Bfn.  Coefficient  Atom+Function  
  ----- ------------  ---------------      ----- ------------  ---------------
     3      0.409200  1 C  py                27      0.256411  2 O  py         
     7      0.239109  1 C  py                49      0.208015  3 H  s          
    51     -0.208015  4 H  s          
 
 Vector    4  Occ=2.000000D+00  E=-4.429335D-01  Symmetry=a1
              MO Center=  1.9D-18, -3.6D-17,  5.3D-01, r^2= 1.0D+00
   Bfn.  Coefficient  Atom+Function         Bfn.  Coefficient  Atom+Function  
  ----- ------------  ---------------      ----- ------------  ---------------
    28      0.504513  2 O  pz                32      0.365690  2 O  pz         
     4     -0.329295  1 C  pz                29      0.292293  2 O  s          
    25      0.179894  2 O  s          
 
 Vector    5  Occ=2.000000D+00  E=-3.923975D-01  Symmetry=b1
              MO Center=  1.0D-15,  1.0D-16,  2.3D-01, r^2= 9.7D-01
   Bfn.  Coefficient  Atom+Function         Bfn.  Coefficient  Atom+Function  
  ----- ------------  ---------------      ----- ------------  ---------------
    26     -0.486036  2 O  px                30     -0.336500  2 O  px         
     2     -0.328702  1 C  px                 6     -0.269840  1 C  px         
 
 Vector    6  Occ=2.000000D+00  E=-2.704469D-01  Symmetry=b2
              MO Center= -3.1D-20, -1.5D-15,  2.3D-01, r^2= 1.4D+00
   Bfn.  Coefficient  Atom+Function         Bfn.  Coefficient  Atom+Function  
  ----- ------------  ---------------      ----- ------------  ---------------
    27     -0.582556  2 O  py                31     -0.473116  2 O  py         
    50      0.249994  3 H  s                 52     -0.249994  4 H  s          
    51     -0.175691  4 H  s                 49      0.175691  3 H  s          
 
 Vector    7  Occ=0.000000D+00  E=-4.244949D-02  Symmetry=b1
              MO Center= -3.6D-16, -2.5D-17, -1.8D-01, r^2= 1.4D+00
   Bfn.  Coefficient  Atom+Function         Bfn.  Coefficient  Atom+Function  
  ----- ------------  ---------------      ----- ------------  ---------------
     6      0.647526  1 C  px                30     -0.512079  2 O  px         
     2      0.446379  1 C  px                26     -0.432397  2 O  px         
 
 Vector    8  Occ=0.000000D+00  E= 1.017436D-01  Symmetry=a1
              MO Center= -3.1D-18,  5.1D-15, -1.1D+00, r^2= 2.9D+00
   Bfn.  Coefficient  Atom+Function         Bfn.  Coefficient  Atom+Function  
  ----- ------------  ---------------      ----- ------------  ---------------
     5      1.773389  1 C  s                 50     -1.292899  3 H  s          
    52     -1.292899  4 H  s                  8     -0.604715  1 C  pz         
     1      0.214990  1 C  s                  4     -0.205076  1 C  pz         
 
 Vector    9  Occ=0.000000D+00  E= 1.818657D-01  Symmetry=b2
              MO Center= -3.2D-17, -3.4D-15, -1.1D+00, r^2= 3.1D+00
   Bfn.  Coefficient  Atom+Function         Bfn.  Coefficient  Atom+Function  
  ----- ------------  ---------------      ----- ------------  ---------------
    52     -1.634695  4 H  s                 50      1.634695  3 H  s          
     7     -1.455130  1 C  py                 3     -0.456043  1 C  py         
    31      0.401488  2 O  py                27      0.152049  2 O  py         
 
 Vector   10  Occ=0.000000D+00  E= 2.361822D-01  Symmetry=a1
              MO Center= -1.1D-15,  1.5D-16, -3.9D-01, r^2= 2.3D+00
   Bfn.  Coefficient  Atom+Function         Bfn.  Coefficient  Atom+Function  
  ----- ------------  ---------------      ----- ------------  ---------------
     8     -1.768745  1 C  pz                29      1.638120  2 O  s          
     5     -1.317982  1 C  s                 32     -0.900925  2 O  pz         
    28     -0.239787  2 O  pz                25      0.205526  2 O  s          
 
 Vector   11  Occ=0.000000D+00  E= 5.643636D-01  Symmetry=b1
              MO Center= -6.9D-16, -4.0D-17, -5.8D-01, r^2= 1.8D+00
   Bfn.  Coefficient  Atom+Function         Bfn.  Coefficient  Atom+Function  
  ----- ------------  ---------------      ----- ------------  ---------------
     6     -1.115084  1 C  px                 2      0.816248  1 C  px         
    18      0.177965  1 C  fxyy              15      0.175978  1 C  fxxx       
    20      0.152229  1 C  fxzz       
 
 Vector   12  Occ=0.000000D+00  E= 6.445324D-01  Symmetry=a1
              MO Center=  5.0D-16, -1.2D-15, -6.9D-01, r^2= 1.8D+00
   Bfn.  Coefficient  Atom+Function         Bfn.  Coefficient  Atom+Function  
  ----- ------------  ---------------      ----- ------------  ---------------
     8      0.829429  1 C  pz                 5     -0.772427  1 C  s          
     4     -0.611667  1 C  pz                32     -0.542386  2 O  pz         
    51      0.527642  4 H  s                 49      0.527642  3 H  s          
    28     -0.216920  2 O  pz                22     -0.159313  1 C  fyyz       
 
 Vector   13  Occ=0.000000D+00  E= 6.735647D-01  Symmetry=b2
              MO Center=  2.1D-30, -8.7D-17, -1.2D-01, r^2= 2.0D+00
   Bfn.  Coefficient  Atom+Function         Bfn.  Coefficient  Atom+Function  
  ----- ------------  ---------------      ----- ------------  ---------------
     7     -1.983992  1 C  py                50      0.750484  3 H  s          
    52     -0.750484  4 H  s                  3      0.435050  1 C  py         
    27      0.416603  2 O  py                51     -0.376570  4 H  s          
    49      0.376570  3 H  s                 23      0.226824  1 C  fyzz       
    16      0.166349  1 C  fxxy              21      0.161960  1 C  fyyy       
 
 Vector   14  Occ=0.000000D+00  E= 7.406639D-01  Symmetry=a1
              MO Center=  7.2D-17,  1.3D-15, -5.5D-01, r^2= 1.6D+00
   Bfn.  Coefficient  Atom+Function         Bfn.  Coefficient  Atom+Function  
  ----- ------------  ---------------      ----- ------------  ---------------
     8     -0.703172  1 C  pz                 4      0.638525  1 C  pz         
    49      0.616648  3 H  s                 51      0.616648  4 H  s          
    50     -0.616432  3 H  s                 52     -0.616432  4 H  s          
    29      0.438982  2 O  s                 38      0.339559  2 O  dzz        
    14     -0.288875  1 C  dzz               28      0.283277  2 O  pz         
 
 Vector   15  Occ=0.000000D+00  E= 8.284496D-01  Symmetry=a1
              MO Center= -2.5D-18, -5.0D-15,  9.9D-01, r^2= 1.7D+00
   Bfn.  Coefficient  Atom+Function         Bfn.  Coefficient  Atom+Function  
  ----- ------------  ---------------      ----- ------------  ---------------
    32      1.868447  2 O  pz                 5      1.777808  1 C  s          
    29     -0.734952  2 O  s                 28     -0.663386  2 O  pz         
    52     -0.457990  4 H  s                 50     -0.457990  3 H  s          
    46     -0.330735  2 O  fyyz              41     -0.330687  2 O  fxxz       
    14      0.228001  1 C  dzz               38     -0.219233  2 O  dzz        
 
 Vector   16  Occ=0.000000D+00  E= 8.349087D-01  Symmetry=b2
              MO Center= -2.4D-17,  2.8D-15, -9.2D-01, r^2= 2.0D+00
   Bfn.  Coefficient  Atom+Function         Bfn.  Coefficient  Atom+Function  
  ----- ------------  ---------------      ----- ------------  ---------------
     7     -1.454939  1 C  py                50      1.410202  3 H  s          
    52     -1.410202  4 H  s                  3      0.742712  1 C  py         
    49     -0.647936  3 H  s                 51      0.647936  4 H  s          
    31      0.318554  2 O  py                13      0.281781  1 C  dyz        
    37     -0.227529  2 O  dyz               27     -0.186880  2 O  py         
 

 center of mass
 --------------
 x =   0.00000000 y =   0.00000000 z =   0.13504331

 moments of inertia (a.u.)
 ------------------
          53.013934679872           0.000000000000           0.000000000000
           0.000000000000          46.717108831369           0.000000000000
           0.000000000000           0.000000000000           6.296825848504
 
     Multipole analysis of the density
     ---------------------------------
 
     L   x y z        total         alpha         beta         nuclear
     -   - - -        -----         -----         ----         -------
     0   0 0 0      0.000000     -6.000000     -6.000000     12.000000
 
     1   1 0 0      0.000000      0.000000      0.000000      0.000000
     1   0 1 0      0.000000      0.000000      0.000000      0.000000
     1   0 0 1     -0.916535     -0.203155     -0.203155     -0.510226
 
     2   2 0 0     -8.349741     -4.174871     -4.174871      0.000000
     2   1 1 0      0.000000      0.000000      0.000000      0.000000
     2   1 0 1      0.000000      0.000000      0.000000      0.000000
     2   0 2 0     -8.240741     -7.244339     -7.244339      6.247936
     2   0 1 1      0.000000      0.000000      0.000000      0.000000
     2   0 0 2     -8.645490    -15.526730    -15.526730     22.407971
 

 Parallel integral file used       8 records with       0 large values


 Task  times  cpu:        0.6s     wall:        1.1s
 
 
                                NWChem Input Module
                                -------------------
 
 
 Summary of allocated global arrays
-----------------------------------
  No active global arrays



                         GA Statistics for process    0
                         ------------------------------

       create   destroy   get      put      acc     scatter   gather  read&inc
calls:  174      174     3541      805      961        0        0        0     
number of processes/call 1.29e+00 1.38e+00 1.00e+00 0.00e+00 0.00e+00
bytes total:             7.37e+06 2.68e+06 1.52e+06 0.00e+00 0.00e+00 0.00e+00
bytes remote:            1.23e+06 4.95e+05 1.59e+05 0.00e+00 0.00e+00 0.00e+00
Max memory consumed for GA by this process: 663552 bytes
 
MA_summarize_allocated_blocks: starting scan ...
MA_summarize_allocated_blocks: scan completed: 0 heap blocks, 0 stack blocks
MA usage statistics:

	allocation statistics:
					      heap	     stack
					      ----	     -----
	current number of blocks	         0	         0
	maximum number of blocks	        43	        52
	current total bytes		         0	         0
	maximum total bytes		   2899872	  22511608
	maximum total K-bytes		      2900	     22512
	maximum total M-bytes		         3	        23
 
 
                                     CITATION
                                     --------
                Please cite the following reference when publishing
                           results obtained with NWChem:
 
                 M. Valiev, E.J. Bylaska, N. Govind, K. Kowalski,
              T.P. Straatsma, H.J.J. van Dam, D. Wang, J. Nieplocha,
                        E. Apra, T.L. Windus, W.A. de Jong
                 "NWChem: a comprehensive and scalable open-source
                  solution for large scale molecular simulations"
                      Comput. Phys. Commun. 181, 1477 (2010)
                           doi:10.1016/j.cpc.2010.04.018
 
                              AUTHORS & CONTRIBUTORS
                              ----------------------
      E. J. Bylaska, W. A. de Jong, N. Govind, K. Kowalski, T. P. Straatsma,
     M. Valiev, H. J. J. van Dam, D. Wang, E. Apra, T. L. Windus, J. Hammond,
     J. Autschbach, P. Nichols, S. Hirata, M. T. Hackler, Y. Zhao, P.-D. Fan,
      R. J. Harrison, M. Dupuis, D. M. A. Smith, K. Glaesemann, J. Nieplocha,
      V. Tipparaju, M. Krishnan, A. Vazquez-Mayagoitia, L. Jensen, M. Swart,
      Q. Wu, T. Van Voorhis, A. A. Auer, M. Nooijen, L. D. Crosby, E. Brown,
             G. Cisneros, G. I. Fann, H. Fruchtl, J. Garza, K. Hirao,
        R. Kendall, J. A. Nichols, K. Tsemekhman, K. Wolinski, J. Anchell,
       D. Bernholdt, P. Borowski, T. Clark, D. Clerc, H. Dachsel, M. Deegan,
        K. Dyall, D. Elwood, E. Glendening, M. Gutowski, A. Hess, J. Jaffe,
        B. Johnson, J. Ju, R. Kobayashi, R. Kutteh, Z. Lin, R. Littlefield,
    X. Long, B. Meng, T. Nakajima, S. Niu, L. Pollack, M. Rosing, G. Sandrone,
       M. Stave, H. Taylor, G. Thomas, J. H. van Lenthe, A. Wong, Z. Zhang.

 Total times  cpu:        0.6s     wall:        1.2s
