refund: UserID = kowalski
refund: SLURM Job ID = 1467751
refund: Number of nodes          = 1
refund: Number of cores per node = 8
refund: Number of cores          = 8
refund: Amount of time requested = 0:30
refund: Directory = /home/kowalski/TUTORIAL
 
Processor list
 
cu01n2
 
All connections between all procs tested: SUCCESS
 argument  1 = /mscf/home/kowalski/TUTORIAL/h2o_dimer_ccsdt_cc_pvdz.nw



============================== echo of input deck ==============================
title "h2o_dimer_ccsdt_cc_pvdz"
echo
start h2o_dimer_ccsdt_cc_pvdz

permanent_dir /dtemp/kowalski

memory stack 900 mb heap 100 mb global 1100 mb noverify

geometry units angstrom
O    0.0000000   0.00000000  0.00000000
O   -0.2953673   0.00000000  2.90144000
H    0.0000000   0.00000000  0.97287010
H    0.9351134   0.00000000 -0.23780130
H   -0.8267692  -0.76271270  3.16656200
H   -0.8267692   0.76271270  3.16656200
end

basis spherical
* library cc-pvdz
end

scf
thresh 1.0e-10
tol2e 1.0e-10
singlet
rhf
end

tce
freeze atomic
ccsdt
maxiter 100
tilesize 10
diis 3
thresh 1.0d-2
2eorb
2emet 13
attilesize 40
end

task tce energy


================================================================================


                                         
                                         


              Northwest Computational Chemistry Package (NWChem) 6.0
              ------------------------------------------------------


                    Environmental Molecular Sciences Laboratory
                       Pacific Northwest National Laboratory
                                Richland, WA 99352

                              Copyright (c) 1994-2010
                       Pacific Northwest National Laboratory
                            Battelle Memorial Institute

             NWChem is an open-source computational chemistry package
                        distributed under the terms of the
                      Educational Community License (ECL) 2.0
             A copy of the license is included with this distribution
                              in the LICENSE.TXT file

                                  ACKNOWLEDGMENT
                                  --------------

            This software and its documentation were developed at the
            EMSL at Pacific Northwest National Laboratory, a multiprogram
            national laboratory, operated for the U.S. Department of Energy
            by Battelle under Contract Number DE-AC05-76RL01830. Support
            for this work was provided by the Department of Energy Office
            of Biological and Environmental Research, Office of Basic
            Energy Sciences, and the Office of Advanced Scientific Computing.


           Job information
           ---------------

    hostname      = cu1n2
    program       = /scratch/nwchem
    date          = Tue Nov 16 16:04:24 2010

    compiled      = Mon_Nov_01_15:59:31_2010
    source        = /home/scicons/user/kurt/nwchem-6.0-release-pgf90-final/
    nwchem branch = 6.0
    input         = /mscf/home/kowalski/TUTORIAL/h2o_dimer_ccsdt_cc_pvdz.nw
    prefix        = h2o_dimer_ccsdt_cc_pvdz.
    data base     = /dtemp/kowalski/h2o_dimer_ccsdt_cc_pvdz.db
    status        = startup
    nproc         =        8
    time left     =   1762s



           Memory information
           ------------------

    heap     =   13107201 doubles =    100.0 Mbytes
    stack    =  117964801 doubles =    900.0 Mbytes
    global   =  144179200 doubles =   1100.0 Mbytes (distinct from heap & stack)
    total    =  275251202 doubles =   2100.0 Mbytes
    verify   = no 
    hardfail = no 


           Directory information
           ---------------------

  0 permanent = /dtemp/kowalski
  0 scratch   = .




                                NWChem Input Module
                                -------------------


                              h2o_dimer_ccsdt_cc_pvdz
                              -----------------------

 Scaling coordinates for geometry "geometry" by  1.889725989
 (inverse scale =  0.529177249)

 CS  symmetry detected

          ------
          auto-z
          ------
  autoz: The atoms group into disjoint clusters
 cluster   1:    1    3    4
 cluster   2:    2    5    6
 Connecting clusters   1   2 via atoms    3    2 r = 1.95
  autoz: regenerating connections with new bonds


                             Geometry "geometry" -> ""
                             -------------------------

 Output coordinates in angstroms (scale by  1.889725989 to convert to a.u.)

  No.       Tag          Charge          X              Y              Z
 ---- ---------------- ---------- -------------- -------------- --------------
    1 O                    8.0000     0.06909268    -1.52023542     0.00000000
    2 O                    8.0000    -0.06321222     1.39319750     0.00000000
    3 H                    1.0000    -0.07324266    -0.55783379     0.00000000
    4 H                    1.0000    -0.82116710    -1.89228924     0.00000000
    5 H                    1.0000     0.42368302     1.73321320    -0.76271270
    6 H                    1.0000     0.42368302     1.73321320     0.76271270

      Atomic Mass 
      ----------- 

      O                 15.994910
      H                  1.007825


 Effective nuclear repulsion energy (a.u.)      36.4483945990

            Nuclear Dipole moment (a.u.) 
            ----------------------------
        X                 Y               Z
 ---------------- ---------------- ----------------
     0.0000000000     0.0000000000     0.0000000000

      Symmetry information
      --------------------

 Group name             Cs        
 Group number              2
 Group order               2
 No. of unique centers     5

      Symmetry unique atoms

     1    2    3    4    5



                                Z-matrix (autoz)
                                -------- 

 Units are Angstrom for bonds and degrees for angles

      Type          Name      I     J     K     L     M      Value
      ----------- --------  ----- ----- ----- ----- ----- ----------
    1 Stretch                  1     3                       0.97287
    2 Stretch                  1     4                       0.96488
    3 Stretch                  2     3                       1.95106
    4 Stretch                  2     5                       0.96665
    5 Stretch                  2     6                       0.96665
    6 Bend                     1     3     2               171.29261
    7 Bend                     3     2     5               110.75251
    8 Bend                     3     2     6               110.75251
    9 Bend                     3     1     4               104.26800
   10 Bend                     5     2     6               104.18961
   11 Torsion                  1     3     2     5          57.54067
   12 Torsion                  1     3     2     6         -57.54067
   13 Torsion                  2     3     1     4         180.00000


            XYZ format geometry
            -------------------
     6
 geometry
 O                     0.06909268    -1.52023542     0.00000000
 O                    -0.06321222     1.39319750     0.00000000
 H                    -0.07324266    -0.55783379     0.00000000
 H                    -0.82116710    -1.89228924     0.00000000
 H                     0.42368302     1.73321320    -0.76271270
 H                     0.42368302     1.73321320     0.76271270

 ==============================================================================
                                internuclear distances
 ------------------------------------------------------------------------------
       center one      |      center two      | atomic units |  angstroms
 ------------------------------------------------------------------------------
    3 H                |   1 O                |     1.83846  |     0.97287
    4 H                |   1 O                |     1.82335  |     0.96488
    5 H                |   2 O                |     1.82670  |     0.96665
    6 H                |   2 O                |     1.82670  |     0.96665
 ------------------------------------------------------------------------------
                         number of included internuclear distances:          4
 ==============================================================================



 ==============================================================================
                                 internuclear angles
 ------------------------------------------------------------------------------
        center 1       |       center 2       |       center 3       |  degrees
 ------------------------------------------------------------------------------
    3 H                |   1 O                |   4 H                |   104.27
    5 H                |   2 O                |   6 H                |   104.19
 ------------------------------------------------------------------------------
                            number of included internuclear angles:          2
 ==============================================================================



  library name resolved from: environment
  library file name is: <
 /mscf/scicons/apps/nwchem-6.0.oct19//src/basis/libraries/>
  


 Summary of "ao basis" -> "" (spherical)
 ------------------------------------------------------------------------------
       Tag                 Description            Shells   Functions and Types
 ---------------- ------------------------------  ------  ---------------------
 *                          cc-pvdz                   on all atoms 


                      Basis "ao basis" -> "ao basis" (spherical)
                      -----
  O (Oxygen)
  ----------
            Exponent  Coefficients 
       -------------- ---------------------------------------------------------
  1 S  1.17200000E+04  0.000710
  1 S  1.75900000E+03  0.005470
  1 S  4.00800000E+02  0.027837
  1 S  1.13700000E+02  0.104800
  1 S  3.70300000E+01  0.283062
  1 S  1.32700000E+01  0.448719
  1 S  5.02500000E+00  0.270952
  1 S  1.01300000E+00  0.015458

  2 S  1.17200000E+04 -0.000160
  2 S  1.75900000E+03 -0.001263
  2 S  4.00800000E+02 -0.006267
  2 S  1.13700000E+02 -0.025716
  2 S  3.70300000E+01 -0.070924
  2 S  1.32700000E+01 -0.165411
  2 S  5.02500000E+00 -0.116955
  2 S  1.01300000E+00  0.557368

  3 S  3.02300000E-01  1.000000

  4 P  1.77000000E+01  0.043018
  4 P  3.85400000E+00  0.228913
  4 P  1.04600000E+00  0.508728

  5 P  2.75300000E-01  1.000000

  6 D  1.18500000E+00  1.000000

  H (Hydrogen)
  ------------
            Exponent  Coefficients 
       -------------- ---------------------------------------------------------
  1 S  1.30100000E+01  0.019685
  1 S  1.96200000E+00  0.137977
  1 S  4.44600000E-01  0.478148

  2 S  1.22000000E-01  1.000000

  3 P  7.27000000E-01  1.000000



 Summary of "ao basis" -> "ao basis" (spherical)
 ------------------------------------------------------------------------------
       Tag                 Description            Shells   Functions and Types
 ---------------- ------------------------------  ------  ---------------------
 O                          cc-pvdz                  6       14   3s2p1d
 H                          cc-pvdz                  3        5   2s1p


                                 NWChem SCF Module
                                 -----------------


                              h2o_dimer_ccsdt_cc_pvdz



  ao basis        = "ao basis"
  functions       =    48
  atoms           =     6
  closed shells   =    10
  open shells     =     0
  charge          =   0.00
  wavefunction    = RHF 
  input vectors   = atomic
  output vectors  = /dtemp/kowalski/h2o_dimer_ccsdt_cc_pvdz.movecs
  use symmetry    = T
  symmetry adapt  = T


 Summary of "ao basis" -> "ao basis" (spherical)
 ------------------------------------------------------------------------------
       Tag                 Description            Shells   Functions and Types
 ---------------- ------------------------------  ------  ---------------------
 O                          cc-pvdz                  6       14   3s2p1d
 H                          cc-pvdz                  3        5   2s1p


      Symmetry analysis of basis
      --------------------------

        a'         33
        a"         15


 Forming initial guess at       0.2s


      Superposition of Atomic Density Guess
      -------------------------------------

 Sum of atomic energies:        -151.52445821

      Non-variational initial energy
      ------------------------------

 Total energy =    -151.851954
 1-e energy   =    -279.738410
 2-e energy   =      91.438061
 HOMO         =      -0.465820
 LUMO         =       0.068958


      Symmetry analysis of molecular orbitals - initial
      -------------------------------------------------

  Numbering of irreducible representations: 

     1 a'          2 a"      

  Orbital symmetries:

     1 a'          2 a'          3 a'          4 a'          5 a'      
     6 a"          7 a'          8 a'          9 a'         10 a"      
    11 a'         12 a'         13 a"         14 a'         15 a"      
    16 a'         17 a'         18 a'         19 a'         20 a"      


 Starting SCF solution at       0.3s



 ----------------------------------------------
         Quadratically convergent ROHF

 Convergence threshold     :          1.000E-10
 Maximum no. of iterations :           30
 Final Fock-matrix accuracy:          1.000E-10
 ----------------------------------------------


 #quartets = 3.007D+04 #integrals = 3.467D+05 #direct =  0.0% #cached =100.0%


 Integral file          = ./h2o_dimer_ccsdt_cc_pvdz.aoints.0
 Record size in doubles =  65536        No. of integs per rec  =  43688
 Max. records in memory =      3        Max. records in file   =  84688
 No. of bits per label  =      8        No. of bits per value  =     64


File balance: exchanges=     0  moved=     0  time=   0.0


              iter       energy          gnorm     gmax       time
             ----- ------------------- --------- --------- --------
                 1     -151.9982163170  1.12D+00  3.36D-01      5.4
                 2     -152.0569133705  2.40D-01  7.88D-02      5.4
                 3     -152.0614503239  2.02D-02  5.36D-03      5.4
                 4     -152.0614842199  3.50D-04  9.57D-05      5.5
                 5     -152.0614842283  7.82D-08  1.98D-08      5.5
                 6     -152.0614842283  6.20D-12  1.82D-12      5.6


       Final RHF  results 
       ------------------ 

         Total SCF energy =   -152.061484228312
      One-electron energy =   -282.467902210262
      Two-electron energy =     93.958023382990
 Nuclear repulsion energy =     36.448394598960

        Time for solution =      0.3s



       Symmetry analysis of molecular orbitals - final
       -----------------------------------------------

  Numbering of irreducible representations: 

     1 a'          2 a"      

  Orbital symmetries:

     1 a'          2 a'          3 a'          4 a'          5 a"      
     6 a'          7 a'          8 a'          9 a'         10 a"      
    11 a'         12 a'         13 a"         14 a'         15 a"      
    16 a'         17 a'         18 a'         19 a'         20 a'      

             Final eigenvalues
             -----------------

              1      
    1  -20.5854
    2  -20.5168
    3   -1.3652
    4   -1.2989
    5   -0.7247
    6   -0.6698
    7   -0.5991
    8   -0.5409
    9   -0.5142
   10   -0.4611
   11    0.1625
   12    0.2302
   13    0.2391
   14    0.3786
   15    0.7531
   16    0.8034
   17    0.8393
   18    0.8605
   19    1.1277
   20    1.2018

                       ROHF Final Molecular Orbital Analysis
                       -------------------------------------

 Vector    2  Occ=2.000000D+00  E=-2.051679D+01  Symmetry=a'
              MO Center=  6.9D-02, -1.5D+00, -2.4D-18, r^2= 1.5D-02
   Bfn.  Coefficient  Atom+Function         Bfn.  Coefficient  Atom+Function  
  ----- ------------  ---------------      ----- ------------  ---------------
     1      1.000957  1 O  s          

 Vector    3  Occ=2.000000D+00  E=-1.365174D+00  Symmetry=a'
              MO Center=  7.2D-02,  1.5D+00, -7.0D-18, r^2= 5.5D-01
   Bfn.  Coefficient  Atom+Function         Bfn.  Coefficient  Atom+Function  
  ----- ------------  ---------------      ----- ------------  ---------------
    16      0.443816  2 O  s                 17      0.384579  2 O  s          
    39      0.187039  5 H  s                 44      0.187039  6 H  s          

 Vector    4  Occ=2.000000D+00  E=-1.298860D+00  Symmetry=a'
              MO Center= -7.8D-02, -1.4D+00, -9.3D-21, r^2= 5.6D-01
   Bfn.  Coefficient  Atom+Function         Bfn.  Coefficient  Atom+Function  
  ----- ------------  ---------------      ----- ------------  ---------------
     2      0.441623  1 O  s                  3      0.385670  1 O  s          
    34      0.191374  4 H  s                 29      0.182179  3 H  s          

 Vector    5  Occ=2.000000D+00  E=-7.246649D-01  Symmetry=a"
              MO Center=  1.2D-01,  1.5D+00,  5.9D-17, r^2= 7.7D-01
   Bfn.  Coefficient  Atom+Function         Bfn.  Coefficient  Atom+Function  
  ----- ------------  ---------------      ----- ------------  ---------------
    20      0.493581  2 O  pz                39     -0.321930  5 H  s          
    44      0.321930  6 H  s                 23      0.231142  2 O  pz         

 Vector    6  Occ=2.000000D+00  E=-6.698134D-01  Symmetry=a'
              MO Center= -1.2D-01, -1.1D+00,  5.6D-16, r^2= 1.4D+00
   Bfn.  Coefficient  Atom+Function         Bfn.  Coefficient  Atom+Function  
  ----- ------------  ---------------      ----- ------------  ---------------
     5      0.408558  1 O  py                29      0.308709  3 H  s          
    34     -0.302150  4 H  s                  4      0.210781  1 O  px         
     8      0.190220  1 O  py                19     -0.156207  2 O  py         

 Vector    7  Occ=2.000000D+00  E=-5.991158D-01  Symmetry=a'
              MO Center= -9.7D-02,  1.0D+00, -8.8D-17, r^2= 1.5D+00
   Bfn.  Coefficient  Atom+Function         Bfn.  Coefficient  Atom+Function  
  ----- ------------  ---------------      ----- ------------  ---------------
    18      0.428472  2 O  px                17     -0.325546  2 O  s          
    21      0.285994  2 O  px                19      0.285013  2 O  py         
    39      0.193171  5 H  s                 44      0.193171  6 H  s          
    22      0.182419  2 O  py                 4      0.151407  1 O  px         

 Vector    8  Occ=2.000000D+00  E=-5.408741D-01  Symmetry=a'
              MO Center=  3.3D-02, -4.9D-01,  5.6D-16, r^2= 2.7D+00
   Bfn.  Coefficient  Atom+Function         Bfn.  Coefficient  Atom+Function  
  ----- ------------  ---------------      ----- ------------  ---------------
     4      0.394920  1 O  px                18     -0.288113  2 O  px         
     3      0.281954  1 O  s                  7      0.262227  1 O  px         
    19      0.230177  2 O  py                21     -0.213481  2 O  px         
    34     -0.194738  4 H  s                 22      0.189545  2 O  py         
     5     -0.172122  1 O  py         

 Vector    9  Occ=2.000000D+00  E=-5.142044D-01  Symmetry=a'
              MO Center=  1.8D-02,  3.7D-01, -2.3D-15, r^2= 2.6D+00
   Bfn.  Coefficient  Atom+Function         Bfn.  Coefficient  Atom+Function  
  ----- ------------  ---------------      ----- ------------  ---------------
    19      0.450013  2 O  py                22      0.340752  2 O  py         
    18     -0.251792  2 O  px                 5      0.243773  1 O  py         
     4     -0.235791  1 O  px                21     -0.206212  2 O  px         
     7     -0.169316  1 O  px                 8      0.167446  1 O  py         
    29      0.152900  3 H  s          

 Vector   10  Occ=2.000000D+00  E=-4.610738D-01  Symmetry=a"
              MO Center=  4.9D-02, -1.5D+00,  1.6D-15, r^2= 6.1D-01
   Bfn.  Coefficient  Atom+Function         Bfn.  Coefficient  Atom+Function  
  ----- ------------  ---------------      ----- ------------  ---------------
     6      0.627443  1 O  pz                 9      0.501017  1 O  pz         

 Vector   11  Occ=0.000000D+00  E= 1.625098D-01  Symmetry=a'
              MO Center=  4.2D-01,  1.5D+00,  1.1D-15, r^2= 3.9D+00
   Bfn.  Coefficient  Atom+Function         Bfn.  Coefficient  Atom+Function  
  ----- ------------  ---------------      ----- ------------  ---------------
    17      0.946871  2 O  s                 45     -0.770184  6 H  s          
    40     -0.770184  5 H  s                 35     -0.299380  4 H  s          
    21      0.261024  2 O  px                 3      0.255121  1 O  s          
    22      0.164764  2 O  py         

 Vector   12  Occ=0.000000D+00  E= 2.302203D-01  Symmetry=a'
              MO Center= -8.9D-01, -1.6D+00, -5.6D-17, r^2= 3.7D+00
   Bfn.  Coefficient  Atom+Function         Bfn.  Coefficient  Atom+Function  
  ----- ------------  ---------------      ----- ------------  ---------------
    35      1.353875  4 H  s                  3     -0.855939  1 O  s          
     7      0.405608  1 O  px                17      0.267339  2 O  s          
    45     -0.250081  6 H  s                 40     -0.250081  5 H  s          
     4      0.202814  1 O  px         

 Vector   13  Occ=0.000000D+00  E= 2.391181D-01  Symmetry=a"
              MO Center=  5.4D-01,  1.8D+00, -1.9D-15, r^2= 3.6D+00
   Bfn.  Coefficient  Atom+Function         Bfn.  Coefficient  Atom+Function  
  ----- ------------  ---------------      ----- ------------  ---------------
    40      1.418137  5 H  s                 45     -1.418137  6 H  s          
    23      0.664425  2 O  pz                20      0.288161  2 O  pz         

 Vector   14  Occ=0.000000D+00  E= 3.785650D-01  Symmetry=a'
              MO Center= -1.4D-01, -4.6D-01,  1.3D-15, r^2= 3.5D+00
   Bfn.  Coefficient  Atom+Function         Bfn.  Coefficient  Atom+Function  
  ----- ------------  ---------------      ----- ------------  ---------------
    30      1.995563  3 H  s                 35     -1.011954  4 H  s          
     8     -0.649220  1 O  py                 3     -0.531729  1 O  s          
    22      0.345959  2 O  py                45     -0.323453  6 H  s          
    40     -0.323453  5 H  s                  5     -0.274186  1 O  py         
    19      0.204478  2 O  py                 7     -0.174620  1 O  px         

 Vector   15  Occ=0.000000D+00  E= 7.530875D-01  Symmetry=a"
              MO Center=  2.4D-01,  1.6D+00,  9.6D-15, r^2= 1.7D+00
   Bfn.  Coefficient  Atom+Function         Bfn.  Coefficient  Atom+Function  
  ----- ------------  ---------------      ----- ------------  ---------------
    44      0.947002  6 H  s                 39     -0.947002  5 H  s          
    45     -0.696464  6 H  s                 40      0.696464  5 H  s          
    23     -0.463085  2 O  pz                20     -0.255742  2 O  pz         

 Vector   16  Occ=0.000000D+00  E= 8.033685D-01  Symmetry=a'
              MO Center= -1.2D-01, -9.8D-01, -1.4D-15, r^2= 2.4D+00
   Bfn.  Coefficient  Atom+Function         Bfn.  Coefficient  Atom+Function  
  ----- ------------  ---------------      ----- ------------  ---------------
    29      0.977371  3 H  s                 30     -0.907867  3 H  s          
    34     -0.818701  4 H  s                 35      0.667294  4 H  s          
     8     -0.330833  1 O  py                39      0.254770  5 H  s          
    44      0.254770  6 H  s                 22     -0.237126  2 O  py         
     7     -0.217986  1 O  px                 5     -0.214161  1 O  py         

 Vector   17  Occ=0.000000D+00  E= 8.393119D-01  Symmetry=a'
              MO Center=  3.9D-01,  1.5D+00, -9.3D-15, r^2= 2.3D+00
   Bfn.  Coefficient  Atom+Function         Bfn.  Coefficient  Atom+Function  
  ----- ------------  ---------------      ----- ------------  ---------------
    39      0.791026  5 H  s                 44      0.791026  6 H  s          
    30      0.645801  3 H  s                 40     -0.606458  5 H  s          
    45     -0.606458  6 H  s                 29     -0.379444  3 H  s          
    43     -0.271546  5 H  pz                48      0.271546  6 H  pz         
    16     -0.254870  2 O  s                 17      0.247941  2 O  s          

 Vector   18  Occ=0.000000D+00  E= 8.604555D-01  Symmetry=a'
              MO Center= -5.1D-01, -1.3D+00,  4.5D-16, r^2= 1.9D+00
   Bfn.  Coefficient  Atom+Function         Bfn.  Coefficient  Atom+Function  
  ----- ------------  ---------------      ----- ------------  ---------------
    34      0.912658  4 H  s                 29      0.600289  3 H  s          
    35     -0.579965  4 H  s                 30     -0.558136  3 H  s          
     3      0.343783  1 O  s                  4      0.295347  1 O  px         
    32      0.257447  3 H  py                 2     -0.233483  1 O  s          
    17      0.226453  2 O  s                 37     -0.213433  4 H  py         

 Vector   19  Occ=0.000000D+00  E= 1.127735D+00  Symmetry=a'
              MO Center= -7.3D-02,  8.3D-01,  4.0D-16, r^2= 2.4D+00
   Bfn.  Coefficient  Atom+Function         Bfn.  Coefficient  Atom+Function  
  ----- ------------  ---------------      ----- ------------  ---------------
    21      1.101045  2 O  px                18     -0.737420  2 O  px         
    17      0.612772  2 O  s                  7      0.493111  1 O  px         
    39     -0.398949  5 H  s                 44     -0.398949  6 H  s          
     4     -0.347162  1 O  px                 3     -0.283275  1 O  s          
    35      0.260600  4 H  s                 22      0.189751  2 O  py         

 Vector   20  Occ=0.000000D+00  E= 1.201795D+00  Symmetry=a'
              MO Center=  8.2D-02, -1.1D+00,  1.5D-15, r^2= 2.6D+00
   Bfn.  Coefficient  Atom+Function         Bfn.  Coefficient  Atom+Function  
  ----- ------------  ---------------      ----- ------------  ---------------
     7      0.968736  1 O  px                 8     -0.700689  1 O  py         
     3     -0.643607  1 O  s                  4     -0.563017  1 O  px         
    29      0.539225  3 H  s                 34      0.509469  4 H  s          
     5      0.397137  1 O  py                21     -0.364502  2 O  px         
    17     -0.286068  2 O  s                 18      0.263749  2 O  px         


 center of mass
 --------------
 x =   0.00244711 y =  -0.05286578 z =   0.00000000

 moments of inertia (a.u.)
 ------------------
         282.592715743193           0.000000000000           0.000000000000
           0.000000000000           8.426269014226           0.000000000000
           0.000000000000           0.000000000000         282.644371776814

  Mulliken analysis of the total density
  --------------------------------------

    Atom       Charge   Shell Charges
 -----------   ------   -------------------------------------------------------
    1 O    8     8.36   2.00  0.83  0.83  2.82  1.86  0.01
    2 O    8     8.31   2.00  0.83  0.83  2.82  1.81  0.01
    3 H    1     0.83   0.65  0.09  0.09
    4 H    1     0.85   0.69  0.08  0.08
    5 H    1     0.83   0.67  0.07  0.08
    6 H    1     0.83   0.67  0.07  0.08

       Multipole analysis of the density wrt the origin
       ------------------------------------------------

     L   x y z        total         open         nuclear
     -   - - -        -----         ----         -------
     0   0 0 0      0.000000      0.000000     20.000000

     1   1 0 0     -0.018671      0.000000      0.000000
     1   0 1 0      1.104315      0.000000      0.000000
     1   0 0 1      0.000000      0.000000      0.000000

     2   2 0 0     -8.574313      0.000000      3.959779
     2   1 1 0      4.843865      0.000000      5.422929
     2   1 0 1      0.000000      0.000000      0.000000
     2   0 2 0     -8.161846      0.000000    156.830121
     2   0 1 1      0.000000      0.000000      0.000000
     2   0 0 2     -8.272936      0.000000      4.154795


 Parallel integral file used      14 records with       0 large values

                   NWChem Extensible Many-Electron Theory Module
                   ---------------------------------------------

              ======================================================
                   This portion of the program was automatically
                  generated by a Tensor Contraction Engine (TCE).
                  The development of this portion of the program
                 and TCE was supported by US Department of Energy,
                Office of Science, Office of Basic Energy Science.
                      TCE is a product of Battelle and PNNL.
              Please cite: S.Hirata, J.Phys.Chem.A 107, 9887 (2003).
              ======================================================

                              h2o_dimer_ccsdt_cc_pvdz


            General Information
            -------------------
      Number of processors :     8
         Wavefunction type : Restricted Hartree-Fock
          No. of electrons :    20
           Alpha electrons :    10
            Beta electrons :    10
           No. of orbitals :    96
            Alpha orbitals :    48
             Beta orbitals :    48
        Alpha frozen cores :     2
         Beta frozen cores :     2
     Alpha frozen virtuals :     0
      Beta frozen virtuals :     0
         Spin multiplicity : singlet 
    Number of AO functions :    48
       Number of AO shells :    24
        Use of symmetry is : on 
      Symmetry adaption is : on 
         Schwarz screening : 0.10D-09

          Correlation Information
          -----------------------
          Calculation type : Coupled-cluster singles, doubles, & triples                 
   Perturbative correction : none                                                        
            Max iterations :      100
        Residual threshold : 0.10D-01
     T(0) DIIS level shift : 0.00D+00
     L(0) DIIS level shift : 0.00D+00
     T(1) DIIS level shift : 0.00D+00
     L(1) DIIS level shift : 0.00D+00
     T(R) DIIS level shift : 0.00D+00
     T(I) DIIS level shift : 0.00D+00
   CC-T/L Amplitude update :  3-th order DIIS
                I/O scheme : Global Array Library

            Memory Information
            ------------------
          Available GA space size is    1153431296 doubles
          Available MA space size is     131068614 doubles

 Maximum block size supplied by input
 Maximum block size        10 doubles

 tile_dim =      9

 Block   Spin    Irrep     Size     Offset   Alpha
 -------------------------------------------------
   1    alpha     a'     6 doubles       0       1
   2    alpha     a"     2 doubles       6       2
   3    beta      a'     6 doubles       8       1
   4    beta      a"     2 doubles      14       2
   5    alpha     a'     8 doubles      16       5
   6    alpha     a'     8 doubles      24       6
   7    alpha     a'     9 doubles      32       7
   8    alpha     a"     6 doubles      41       8
   9    alpha     a"     7 doubles      47       9
  10    beta      a'     8 doubles      54       5
  11    beta      a'     8 doubles      62       6
  12    beta      a'     9 doubles      70       7
  13    beta      a"     6 doubles      79       8
  14    beta      a"     7 doubles      85       9

 Global array virtual files algorithm will be used

 Parallel file system coherency ......... OK

 #quartets = 4.359D+04 #integrals = 5.213D+05 #direct =  0.0% #cached =100.0%


 Integral file          = ./h2o_dimer_ccsdt_cc_pvdz.aoints.0
 Record size in doubles =  65536        No. of integs per rec  =  43688
 Max. records in memory =      3        Max. records in file   =  84688
 No. of bits per label  =      8        No. of bits per value  =     64


File balance: exchanges=     0  moved=     0  time=   0.0


 Fock matrix recomputed
 1-e file size   =             1186
 1-e file name   = ./h2o_dimer_ccsdt_cc
 Cpu & wall time / sec            0.1            0.1
 4-electron integrals stored in orbital form

 v2    file size   =           429742
 4-index algorithm nr.  13 is used
 imaxsize =       40
 imaxsize ichop =        0
 Cpu & wall time / sec            1.6            3.5
 do_pt =   F
 do_lam_pt =   F
 do_cr_pt =   F
 do_lcr_pt =   F
 do_2t_pt =   F
 T1-number-of-tasks                        5

 t1 file size   =              176
 t1 file name   = ./h2o_dimer_ccsdt_cc
 t1 file handle =       -998
 T2-number-of-boxes                       74

 t2 file size   =            73020
 t2 file name   = ./h2o_dimer_ccsdt_cc
 t2 file handle =       -996

 t3 file size   =         16707808
 t3 file name   = ./h2o_dimer_ccsdt_cc

 CCSDT iterations
 --------------------------------------------------------
 Iter          Residuum       Correlation     Cpu    Wall
 --------------------------------------------------------
    1   0.5129926929649  -0.4072964600410    18.9    22.8
    2   0.0859014062875  -0.4165232422827    18.8    22.5
    3   0.0426588762925  -0.4292225049178    18.8    22.4
 MICROCYCLE DIIS UPDATE:                        3                        3
    4   0.0304420693663  -0.4314887467287    18.8    22.6
    5   0.0098742415038  -0.4317742555456    18.7    22.2
 --------------------------------------------------------
 Iterations converged
 CCSDT correlation energy / hartree =        -0.431774255545583
 CCSDT total energy / hartree       =      -152.493258483857100

 Singles contributions

 Doubles contributions

 Parallel integral file used      16 records with       0 large values


 Task  times  cpu:       97.2s     wall:      118.5s


                                NWChem Input Module
                                -------------------


 Summary of allocated global arrays
-----------------------------------
  No active global arrays



                         GA Statistics for process    0
                         ------------------------------

       create   destroy   get      put      acc     scatter   gather  read&inc
calls:  805      805     2.05e+05 1157     3.51e+04    0        0        0     
number of processes/call 1.14e+00 1.57e+00 1.06e+00 0.00e+00 0.00e+00
bytes total:             1.62e+10 2.08e+08 5.79e+09 0.00e+00 0.00e+00 0.00e+00
bytes remote:            1.40e+10 1.55e+08 4.93e+09 0.00e+00 0.00e+00 0.00e+00
Max memory consumed for GA by this process: 145963872 bytes

MA_summarize_allocated_blocks: starting scan ...
MA_summarize_allocated_blocks: scan completed: 0 heap blocks, 0 stack blocks
MA usage statistics:

	allocation statistics:
					      heap	     stack
					      ----	     -----
	current number of blocks	         0	         0
	maximum number of blocks	        18	        36
	current total bytes		         0	         0
	maximum total bytes		   1598264	  89308872
	maximum total K-bytes		      1599	     89309
	maximum total M-bytes		         2	        90


                                     CITATION
                                     --------
                Please cite the following reference when publishing
                           results obtained with NWChem:

                 M. Valiev, E.J. Bylaska, N. Govind, K. Kowalski,
              T.P. Straatsma, H.J.J. van Dam, D. Wang, J. Nieplocha,
                        E. Apra, T.L. Windus, W.A. de Jong
                 "NWChem: a comprehensive and scalable open-source
                  solution for large scale molecular simulations"
                      Comput. Phys. Commun. 181, 1477 (2010)
                           doi:10.1016/j.cpc.2010.04.018

                              AUTHORS & CONTRIBUTORS
                              ----------------------
      E. J. Bylaska, W. A. de Jong, N. Govind, K. Kowalski, T. P. Straatsma,
     M. Valiev, H. J. J. van Dam, D. Wang, E. Apra, T. L. Windus, J. Hammond,
     J. Autschbach, P. Nichols, S. Hirata, M. T. Hackler, Y. Zhao, P.-D. Fan,
      R. J. Harrison, M. Dupuis, D. M. A. Smith, K. Glaesemann, J. Nieplocha,
      V. Tipparaju, M. Krishnan, A. Vazquez-Mayagoitia, L. Jensen, M. Swart,
      Q. Wu, T. Van Voorhis, A. A. Auer, M. Nooijen, L. D. Crosby, E. Brown,
             G. Cisneros, G. I. Fann, H. Fruchtl, J. Garza, K. Hirao,
        R. Kendall, J. A. Nichols, K. Tsemekhman, K. Wolinski, J. Anchell,
       D. Bernholdt, P. Borowski, T. Clark, D. Clerc, H. Dachsel, M. Deegan,
        K. Dyall, D. Elwood, E. Glendening, M. Gutowski, A. Hess, J. Jaffe,
        B. Johnson, J. Ju, R. Kobayashi, R. Kutteh, Z. Lin, R. Littlefield,
    X. Long, B. Meng, T. Nakajima, S. Niu, L. Pollack, M. Rosing, G. Sandrone,
       M. Stave, H. Taylor, G. Thomas, J. H. van Lenthe, A. Wong, Z. Zhang.

 Total times  cpu:       97.3s     wall:      118.8s
