 argument  1 = cdfit.nw
 


============================== echo of input deck ==============================
echo
title "tutorial to demonstrate charge-density fitting"

start acr-cdfit

geometry units bohr
C         -3.4889915040            0.0757243564            0.0000000000
C         -1.1660674990           -0.8921396346            0.0000000000
C          1.0745076249            0.7531195619            0.0000000000
O          3.2306456355           -0.0048697519            0.0000000000
H         -5.1598072439           -1.1007803728            0.0000000000
H         -3.7843301456            2.1030589485            0.0000000000
H         -0.8202431053           -2.9101405740            0.0000000000
H          0.6573804135            2.8079130427            0.0000000000
end

basis spherical
 * library 6-31G
end

basis "cd basis"
*  library "DGauss A2 DFT Coulomb Fitting"
end

dft
 xc xpbe96 cpbe96
end
task dft energy
================================================================================


                                         
                                         
 
 
              Northwest Computational Chemistry Package (NWChem) 6.0
              ------------------------------------------------------
 
 
                    Environmental Molecular Sciences Laboratory
                       Pacific Northwest National Laboratory
                                Richland, WA 99352
 
                              Copyright (c) 1994-2010
                       Pacific Northwest National Laboratory
                            Battelle Memorial Institute
 
             NWChem is an open-source computational chemistry package
                        distributed under the terms of the
                      Educational Community License (ECL) 2.0
             A copy of the license is included with this distribution
                              in the LICENSE.TXT file
 
                                  ACKNOWLEDGMENT
                                  --------------

            This software and its documentation were developed at the
            EMSL at Pacific Northwest National Laboratory, a multiprogram
            national laboratory, operated for the U.S. Department of Energy
            by Battelle under Contract Number DE-AC05-76RL01830. Support
            for this work was provided by the Department of Energy Office
            of Biological and Environmental Research, Office of Basic
            Energy Sciences, and the Office of Advanced Scientific Computing.


           Job information
           ---------------

    hostname      = curie
    program       = ../../../bin/LINUX64/nwchem
    date          = Mon Nov 15 16:46:48 2010

    compiled      = Mon_Nov_15_10:21:04_2010
    source        = /home/niri/nwchem/nwchem-6.0
    nwchem branch = 6.0
    input         = cdfit.nw
    prefix        = acr-cdfit.
    data base     = ./acr-cdfit.db
    status        = startup
    nproc         =        4
    time left     =     -1s



           Memory information
           ------------------

    heap     =   13107201 doubles =    100.0 Mbytes
    stack    =   13107201 doubles =    100.0 Mbytes
    global   =   26214400 doubles =    200.0 Mbytes (distinct from heap & stack)
    total    =   52428802 doubles =    400.0 Mbytes
    verify   = yes
    hardfail = no 


           Directory information
           ---------------------
 
  0 permanent = .
  0 scratch   = .
 
 
 
 
                                NWChem Input Module
                                -------------------
 
 
                  tutorial to demonstrate charge-density fitting
                  ----------------------------------------------
 CS  symmetry detected

          ------
          auto-z
          ------
 
 
                             Geometry "geometry" -> ""
                             -------------------------
 
 Output coordinates in a.u. (scale by  1.000000000 to convert to a.u.)
 
  No.       Tag          Charge          X              Y              Z
 ---- ---------------- ---------- -------------- -------------- --------------
    1 C                    6.0000     0.25763286     3.32137763     0.00000000
    2 C                    6.0000    -0.84664484     1.06011528     0.00000000
    3 C                    6.0000     0.66247352    -1.27432608     0.00000000
    4 O                    8.0000    -0.22238340    -3.38157718     0.00000000
    5 H                    1.0000    -0.81743964     5.05919457     0.00000000
    6 H                    1.0000     2.29894170     3.49564380     0.00000000
    7 H                    1.0000    -2.88163854     0.83489769     0.00000000
    8 H                    1.0000     2.73843448    -0.98011961     0.00000000
 
      Atomic Mass 
      ----------- 
 
      C                 12.000000
      O                 15.994910
      H                  1.007825
 

 Effective nuclear repulsion energy (a.u.)     103.2460005257

            Nuclear Dipole moment (a.u.) 
            ----------------------------
        X                 Y               Z
 ---------------- ---------------- ----------------
     0.0000000000     0.0000000000     0.0000000000
 
      Symmetry information
      --------------------
 
 Group name             Cs        
 Group number              2
 Group order               2
 No. of unique centers     8
 
      Symmetry unique atoms
 
     1    2    3    4    5    6    7    8
 


                                Z-matrix (autoz)
                                -------- 

 Units are Angstrom for bonds and degrees for angles
 
      Type          Name      I     J     K     L     M      Value
      ----------- --------  ----- ----- ----- ----- ----- ----------
    1 Stretch                  1     2                       1.33167
    2 Stretch                  1     5                       1.08136
    3 Stretch                  1     6                       1.08414
    4 Stretch                  2     3                       1.47098
    5 Stretch                  2     7                       1.08345
    6 Stretch                  3     4                       1.20943
    7 Stretch                  3     8                       1.10953
    8 Bend                     1     2     3               121.09066
    9 Bend                     1     2     7               122.34373
   10 Bend                     2     1     5               122.22929
   11 Bend                     2     1     6               120.90787
   12 Bend                     2     3     4               124.34098
   13 Bend                     2     3     8               114.81470
   14 Bend                     3     2     7               116.56561
   15 Bend                     4     3     8               120.84432
   16 Bend                     5     1     6               116.86284
   17 Torsion                  1     2     3     4         180.00000
   18 Torsion                  1     2     3     8           0.00000
   19 Torsion                  3     2     1     5         180.00000
   20 Torsion                  3     2     1     6           0.00000
   21 Torsion                  4     3     2     7           0.00000
   22 Torsion                  5     1     2     7           0.00000
   23 Torsion                  6     1     2     7         180.00000
   24 Torsion                  7     2     3     8         180.00000
 
 
            XYZ format geometry
            -------------------
     8
 geometry
 C                     0.13633345     1.75759748     0.00000000
 C                    -0.44802519     0.56098889     0.00000000
 C                     0.35056591    -0.67434437     0.00000000
 O                    -0.11768024    -1.78945371     0.00000000
 H                    -0.43257046     2.67721067     0.00000000
 H                     1.21654764     1.84981517     0.00000000
 H                    -1.52489755     0.44180886     0.00000000
 H                     1.44911722    -0.51865700     0.00000000
 
 ==============================================================================
                                internuclear distances
 ------------------------------------------------------------------------------
       center one      |      center two      | atomic units |       a.u.
 ------------------------------------------------------------------------------
    2 C                |   1 C                |     2.51649  |     2.51649
    3 C                |   2 C                |     2.77976  |     2.77976
    4 O                |   3 C                |     2.28549  |     2.28549
    5 H                |   1 C                |     2.04347  |     2.04347
    6 H                |   1 C                |     2.04873  |     2.04873
    7 H                |   2 C                |     2.04742  |     2.04742
    8 H                |   3 C                |     2.09670  |     2.09670
 ------------------------------------------------------------------------------
                         number of included internuclear distances:          7
 ==============================================================================



 ==============================================================================
                                 internuclear angles
 ------------------------------------------------------------------------------
        center 1       |       center 2       |       center 3       |  degrees
 ------------------------------------------------------------------------------
    2 C                |   1 C                |   5 H                |   122.23
    2 C                |   1 C                |   6 H                |   120.91
    5 H                |   1 C                |   6 H                |   116.86
    1 C                |   2 C                |   3 C                |   121.09
    1 C                |   2 C                |   7 H                |   122.34
    3 C                |   2 C                |   7 H                |   116.57
    2 C                |   3 C                |   4 O                |   124.34
    2 C                |   3 C                |   8 H                |   114.81
    4 O                |   3 C                |   8 H                |   120.84
 ------------------------------------------------------------------------------
                            number of included internuclear angles:          9
 ==============================================================================



  library name resolved from: environment
  library file name is: </home/niri/nwchem/nwchem-6.0/src/basis/libraries/>
  


 Summary of "ao basis" -> "" (spherical)
 ------------------------------------------------------------------------------
       Tag                 Description            Shells   Functions and Types
 ---------------- ------------------------------  ------  ---------------------
 *                           6-31G                    on all atoms 


  library name resolved from: environment
  library file name is: </home/niri/nwchem/nwchem-6.0/src/basis/libraries/>
  


 Summary of "cd basis" -> "" (cartesian)
 ------------------------------------------------------------------------------
       Tag                 Description            Shells   Functions and Types
 ---------------- ------------------------------  ------  ---------------------
 *                DGauss A2 DFT Coulomb Fitting       on all atoms 


  pbe96 is a nonlocal functional; adding pw91lda local functional. 
 
                                 NWChem DFT Module
                                 -----------------
 
 
                  tutorial to demonstrate charge-density fitting
 
 
                      Basis "ao basis" -> "ao basis" (spherical)
                      -----
  C (Carbon)
  ----------
            Exponent  Coefficients 
       -------------- ---------------------------------------------------------
  1 S  3.04752490E+03  0.001835
  1 S  4.57369510E+02  0.014037
  1 S  1.03948690E+02  0.068843
  1 S  2.92101550E+01  0.232184
  1 S  9.28666300E+00  0.467941
  1 S  3.16392700E+00  0.362312
 
  2 S  7.86827240E+00 -0.119332
  2 S  1.88128850E+00 -0.160854
  2 S  5.44249300E-01  1.143456
 
  3 P  7.86827240E+00  0.068999
  3 P  1.88128850E+00  0.316424
  3 P  5.44249300E-01  0.744308
 
  4 S  1.68714400E-01  1.000000
 
  5 P  1.68714400E-01  1.000000
 
  O (Oxygen)
  ----------
            Exponent  Coefficients 
       -------------- ---------------------------------------------------------
  1 S  5.48467170E+03  0.001831
  1 S  8.25234950E+02  0.013950
  1 S  1.88046960E+02  0.068445
  1 S  5.29645000E+01  0.232714
  1 S  1.68975700E+01  0.470193
  1 S  5.79963530E+00  0.358521
 
  2 S  1.55396160E+01 -0.110778
  2 S  3.59993360E+00 -0.148026
  2 S  1.01376180E+00  1.130767
 
  3 P  1.55396160E+01  0.070874
  3 P  3.59993360E+00  0.339753
  3 P  1.01376180E+00  0.727159
 
  4 S  2.70005800E-01  1.000000
 
  5 P  2.70005800E-01  1.000000
 
  H (Hydrogen)
  ------------
            Exponent  Coefficients 
       -------------- ---------------------------------------------------------
  1 S  1.87311370E+01  0.033495
  1 S  2.82539370E+00  0.234727
  1 S  6.40121700E-01  0.813757
 
  2 S  1.61277800E-01  1.000000
 


 Summary of "ao basis" -> "ao basis" (spherical)
 ------------------------------------------------------------------------------
       Tag                 Description            Shells   Functions and Types
 ---------------- ------------------------------  ------  ---------------------
 C                           6-31G                   5        9   3s2p
 O                           6-31G                   5        9   3s2p
 H                           6-31G                   2        2   2s


                      Basis "cd basis" -> "cd basis" (cartesian)
                      -----
  C (Carbon)
  ----------
            Exponent  Coefficients 
       -------------- ---------------------------------------------------------
  1 S  1.50000000E+03  1.000000
 
  2 S  3.30000000E+02  1.000000
 
  3 S  9.43200000E+01  1.000000
 
  4 S  2.70000000E+01  1.000000
 
  5 S  9.92000000E+00  1.000000
 
  6 P  9.92000000E+00  1.000000
 
  7 S  2.20000000E+00  1.000000
 
  8 P  2.20000000E+00  1.000000
 
  9 S  6.30000000E-01  1.000000
 
 10 P  6.30000000E-01  1.000000
 
 11 S  1.80000000E-01  1.000000
 
 12 P  1.80000000E-01  1.000000
 
 13 D  9.92000000E+00  1.000000
 
 14 D  2.20000000E+00  1.000000
 
 15 D  6.30000000E-01  1.000000
 
 16 D  1.80000000E-01  1.000000
 
  O (Oxygen)
  ----------
            Exponent  Coefficients 
       -------------- ---------------------------------------------------------
  1 S  2.56600000E+03  1.000000
 
  2 S  5.70000000E+02  1.000000
 
  3 S  1.63000000E+02  1.000000
 
  4 S  4.65000000E+01  1.000000
 
  5 S  1.70000000E+01  1.000000
 
  6 P  1.70000000E+01  1.000000
 
  7 S  3.80000000E+00  1.000000
 
  8 P  3.80000000E+00  1.000000
 
  9 S  1.08000000E+00  1.000000
 
 10 P  1.08000000E+00  1.000000
 
 11 S  3.10000000E-01  1.000000
 
 12 P  3.10000000E-01  1.000000
 
 13 D  1.70000000E+01  1.000000
 
 14 D  3.80000000E+00  1.000000
 
 15 D  1.08000000E+00  1.000000
 
 16 D  3.10000000E-01  1.000000
 
  H (Hydrogen)
  ------------
            Exponent  Coefficients 
       -------------- ---------------------------------------------------------
  1 S  4.50000000E+01  1.000000
 
  2 S  7.50000000E+00  1.000000
 
  3 S  3.00000000E-01  1.000000
 
  4 S  1.50000000E+00  1.000000
 
  5 P  1.50000000E+00  1.000000
 
  6 D  1.50000000E+00  1.000000
 


 Summary of "cd basis" -> "cd basis" (cartesian)
 ------------------------------------------------------------------------------
       Tag                 Description            Shells   Functions and Types
 ---------------- ------------------------------  ------  ---------------------
 C                DGauss A2 DFT Coulomb Fitting     16       44   8s4p4d
 O                DGauss A2 DFT Coulomb Fitting     16       44   8s4p4d
 H                DGauss A2 DFT Coulomb Fitting      6       13   4s1p1d


  int_init: cando_txs set to always be  F
  Caching 1-el integrals 
 
            General Information
            -------------------
          SCF calculation type: DFT
          Wavefunction type:  closed shell.
          No. of atoms     :     8
          No. of electrons :    30
           Alpha electrons :    15
            Beta electrons :    15
          Charge           :     0
          Spin multiplicity:     1
          Use of symmetry is: on ; symmetry adaption is: on 
          Maximum number of iterations:  30
          AO basis - number of functions:    44
                     number of shells:    28
          A Charge density fitting basis will be used.
          CD basis - number of functions:   228
                     number of shells:    88
          Convergence on energy requested: 1.00D-06
          Convergence on density requested: 1.00D-05
          Convergence on gradient requested: 5.00D-04
 
              XC Information
              --------------
          PerdewBurkeErnzerhof Exchange Functional  1.000          
            Perdew 1991 LDA Correlation Functional  1.000 local    
           PerdewBurkeErnz. Correlation Functional  1.000 non-local
 
             Grid Information
             ----------------
          Grid used for XC integration:  medium    
          Radial quadrature: Mura-Knowles        
          Angular quadrature: Lebedev. 
          Tag              B.-S. Rad. Rad. Pts. Rad. Cut. Ang. Pts.
          ---              ---------- --------- --------- ---------
          C                   0.70       49           9.0       434
          O                   0.60       49          11.0       434
          H                   0.35       45          10.0       434
          Grid pruning is: on 
          Number of quadrature shells:   376
          Spatial weights used:  Erf1
 
          Convergence Information
          -----------------------
          Convergence aids based upon iterative change in 
          total energy or number of iterations. 
          Levelshifting, if invoked, occurs when the 
          HOMO/LUMO gap drops below (HL_TOL): 1.00D-02
          DIIS, if invoked, will attempt to extrapolate 
          using up to (NFOCK): 10 stored Fock matrices.

                    Damping( 0%)  Levelshifting(0.5)       DIIS
                  --------------- ------------------- ---------------
          dE  on:    start            ASAP                start   
          dE off:    2 iters         30 iters            30 iters 

 
      Screening Tolerance Information
      -------------------------------
          Density screening/tol_rho: 1.00D-10
          AO Gaussian exp screening on grid/accAOfunc:  14
          CD Gaussian exp screening on grid/accCDfunc:  20
          XC Gaussian exp screening on grid/accXCfunc:  20
          Schwarz screening/accCoul: 1.00D-08

 
      Superposition of Atomic Density Guess
      -------------------------------------
 
 Sum of atomic energies:        -189.72804483
 
      Non-variational initial energy
      ------------------------------

 Total energy =    -191.796501
 1-e energy   =    -460.831877
 2-e energy   =     165.789375
 HOMO         =      -0.316011
 LUMO         =      -0.061489
 
 
      Symmetry analysis of molecular orbitals - initial
      -------------------------------------------------
 
  Numbering of irreducible representations: 
 
     1 a'          2 a"      
 
  Orbital symmetries:
 
     1 a'          2 a'          3 a'          4 a'          5 a'      
     6 a'          7 a'          8 a'          9 a'         10 a'      
    11 a"         12 a'         13 a'         14 a"         15 a'      
    16 a"         17 a"         18 a'         19 a'         20 a'      
    21 a'         22 a'         23 a'         24 a'         25 a'      
 
   Time after variat. SCF:      0.2
 
      3 Center 2 Electron Integral Information
      ----------------------------------------
          Maximum number of 3-center 2e- integrals is:          441408.
            This is reduced with Schwarz screening to:          226176.
            Incore requires a per proc buffer size of:           85264.
                  The minimum integral buffer size is:            6156
          Minimum dble words available (all nodes) is:        26212870
                   This is reduced (for later use) to:        26039338
                             Suggested buffer size is:           85264

           0.085 MW buffer allocated for incore 3-center 
          2e- integral storage on stack. 
          The percent of 3c 2e- integrals held in-core is: 100.00

   Time prior to 1st pass:      0.3

 Grid_pts file          = ./acr-cdfit.gridpts.0
 Record size in doubles =  12289        No. of grid_pts per rec  =   3070
 Max. records in memory =     16        Max. recs in file   =     17063


           Memory utilization after 1st SCF pass: 
           Heap Space remaining (MW):       12.91            12909307
          Stack Space remaining (MW):       13.02            13021274

   convergence    iter        energy       DeltaE   RMS-Dens  Diis-err    time
 ---------------- ----- ----------------- --------- --------- ---------  ------
 d= 0,ls=0.0,diis     1   -191.4913424304 -2.95D+02  8.92D-02  1.03D+00     0.5
 d= 0,ls=0.5,diis     2   -190.6254813736  8.66D-01  3.80D-02  8.55D+00     0.7
 d= 0,ls=0.5,diis     3   -191.3231236880 -6.98D-01  2.03D-02  2.35D+00     0.8
 d= 0,ls=0.5,diis     4   -191.5354319085 -2.12D-01  8.69D-03  6.26D-01     1.0
 d= 0,ls=0.5,diis     5   -191.5957298946 -6.03D-02  4.81D-03  1.71D-01     1.1
 d= 0,ls=0.5,diis     6   -191.6162204740 -2.05D-02  2.39D-03  3.94D-02     1.3
 d= 0,ls=0.5,diis     7   -191.6218870859 -5.67D-03  1.16D-03  1.14D-02     1.5
 d= 0,ls=0.5,diis     8   -191.6234386290 -1.55D-03  7.24D-04  5.35D-03     1.6
 d= 0,ls=0.5,diis     9   -191.6239989990 -5.60D-04  4.44D-04  3.33D-03     1.8
 d= 0,ls=0.5,diis    10   -191.6243115615 -3.13D-04  3.01D-04  1.86D-03     1.9
 d= 0,ls=0.5,diis    11   -191.6244939471 -1.82D-04  2.00D-04  8.36D-04     2.1
 d= 0,ls=0.5,diis    12   -191.6245748660 -8.09D-05  1.32D-04  4.18D-04     2.2
 d= 0,ls=0.5,diis    13   -191.6246137741 -3.89D-05  9.15D-05  2.26D-04     2.4
 d= 0,ls=0.5,diis    14   -191.6246353799 -2.16D-05  6.34D-05  1.14D-04     2.5
 d= 0,ls=0.5,diis    15   -191.6246462716 -1.09D-05  4.49D-05  5.94D-05     2.7
 d= 0,ls=0.5,diis    16   -191.6246519015 -5.63D-06  3.19D-05  3.10D-05     2.9
 d= 0,ls=0.5,diis    17   -191.6246548900 -2.99D-06  2.29D-05  1.64D-05     3.0
 d= 0,ls=0.5,diis    18   -191.6246564793 -1.59D-06  1.66D-05  8.73D-06     3.2
 d= 0,ls=0.5,diis    19   -191.6246573373 -8.58D-07  1.21D-05  4.67D-06     3.3
 d= 0,ls=0.5,diis    20   -191.6246577994 -4.62D-07  8.88D-06  2.51D-06     3.5


         Total DFT energy =     -191.624658050849
      One electron energy =     -463.449348782202
           Coulomb energy =      194.650106365117
    Exchange-Corr. energy =      -26.071416159511
 Nuclear repulsion energy =      103.246000525747

 Numeric. integr. density =       30.000004073537

     Total iterative time =      3.3s


 
                       DFT Final Molecular Orbital Analysis
                       ------------------------------------
 
 Vector    4  Occ=2.000000D+00  E=-9.914737D+00  Symmetry=a'
              MO Center= -4.5D-01,  5.6D-01, -1.2D-19, r^2= 3.1D-02
   Bfn.  Coefficient  Atom+Function         Bfn.  Coefficient  Atom+Function  
  ----- ------------  ---------------      ----- ------------  ---------------
    10     -0.994084  2 C  s          
 
 Vector    5  Occ=2.000000D+00  E=-9.816756D-01  Symmetry=a'
              MO Center=  2.6D-02, -1.4D+00,  4.1D-18, r^2= 5.0D-01
   Bfn.  Coefficient  Atom+Function         Bfn.  Coefficient  Atom+Function  
  ----- ------------  ---------------      ----- ------------  ---------------
    29      0.419723  4 O  s                 33      0.405218  4 O  s          
    20      0.240035  3 C  s                 28     -0.191137  4 O  s          
    31      0.182265  4 O  py                22     -0.180434  3 C  py         
 
 Vector    6  Occ=2.000000D+00  E=-7.356469D-01  Symmetry=a'
              MO Center= -8.8D-02,  9.1D-01, -5.6D-18, r^2= 1.3D+00
   Bfn.  Coefficient  Atom+Function         Bfn.  Coefficient  Atom+Function  
  ----- ------------  ---------------      ----- ------------  ---------------
    11      0.315384  2 C  s                  2      0.277807  1 C  s          
     6      0.214673  1 C  s                 15      0.192790  2 C  s          
    10     -0.161130  2 C  s          
 
 Vector    7  Occ=2.000000D+00  E=-5.873955D-01  Symmetry=a'
              MO Center=  1.1D-01,  7.0D-01,  4.8D-18, r^2= 2.5D+00
   Bfn.  Coefficient  Atom+Function         Bfn.  Coefficient  Atom+Function  
  ----- ------------  ---------------      ----- ------------  ---------------
     2     -0.270447  1 C  s                  6     -0.253270  1 C  s          
    20      0.234378  3 C  s                 13     -0.220695  2 C  py         
    24      0.220558  3 C  s                 33     -0.185891  4 O  s          
    22      0.182419  3 C  py         
 
 Vector    8  Occ=2.000000D+00  E=-5.193270D-01  Symmetry=a'
              MO Center=  1.1D-01,  1.9D-01, -1.3D-17, r^2= 2.5D+00
   Bfn.  Coefficient  Atom+Function         Bfn.  Coefficient  Atom+Function  
  ----- ------------  ---------------      ----- ------------  ---------------
    21     -0.233613  3 C  px                12     -0.201361  2 C  px         
    15      0.197595  2 C  s                 11      0.185091  2 C  s          
    24     -0.182299  3 C  s                 20     -0.181922  3 C  s          
    43     -0.178555  8 H  s                 41      0.172432  7 H  s          
     3     -0.156107  1 C  px         
 
 Vector    9  Occ=2.000000D+00  E=-4.321326D-01  Symmetry=a'
              MO Center=  3.2D-01,  3.2D-01,  5.7D-18, r^2= 2.7D+00
   Bfn.  Coefficient  Atom+Function         Bfn.  Coefficient  Atom+Function  
  ----- ------------  ---------------      ----- ------------  ---------------
    21     -0.316349  3 C  px                 3      0.286369  1 C  px         
    13     -0.250519  2 C  py                30     -0.190565  4 O  px         
    39      0.176573  6 H  s                 43     -0.151217  8 H  s          
 
 Vector   10  Occ=2.000000D+00  E=-4.225493D-01  Symmetry=a'
              MO Center= -2.0D-01,  9.1D-01, -2.3D-17, r^2= 3.4D+00
   Bfn.  Coefficient  Atom+Function         Bfn.  Coefficient  Atom+Function  
  ----- ------------  ---------------      ----- ------------  ---------------
     4      0.382939  1 C  py                33     -0.274014  4 O  s          
    12     -0.224780  2 C  px                37      0.219094  5 H  s          
    13     -0.191523  2 C  py                31      0.190678  4 O  py         
    24      0.157076  3 C  s                 38      0.152631  5 H  s          
 
 Vector   11  Occ=2.000000D+00  E=-3.656050D-01  Symmetry=a"
              MO Center=  4.3D-02, -9.9D-01,  6.4D-16, r^2= 1.6D+00
   Bfn.  Coefficient  Atom+Function         Bfn.  Coefficient  Atom+Function  
  ----- ------------  ---------------      ----- ------------  ---------------
    32      0.433041  4 O  pz                23      0.387510  3 C  pz         
    36      0.251272  4 O  pz                27      0.215806  3 C  pz         
    14      0.182008  2 C  pz         
 
 Vector   12  Occ=2.000000D+00  E=-3.620996D-01  Symmetry=a'
              MO Center= -9.0D-02, -1.1D+00, -8.7D-18, r^2= 2.5D+00
   Bfn.  Coefficient  Atom+Function         Bfn.  Coefficient  Atom+Function  
  ----- ------------  ---------------      ----- ------------  ---------------
    31      0.442568  4 O  py                33     -0.283510  4 O  s          
    22     -0.273099  3 C  py                35      0.227244  4 O  py         
    21     -0.194606  3 C  px                 4     -0.186070  1 C  py         
    29     -0.162333  4 O  s                 13      0.160983  2 C  py         
 
 Vector   13  Occ=2.000000D+00  E=-3.481076D-01  Symmetry=a'
              MO Center= -1.5D-01,  9.6D-01,  7.0D-18, r^2= 2.9D+00
   Bfn.  Coefficient  Atom+Function         Bfn.  Coefficient  Atom+Function  
  ----- ------------  ---------------      ----- ------------  ---------------
     3      0.312317  1 C  px                12     -0.278350  2 C  px         
    39      0.215446  6 H  s                 41      0.214430  7 H  s          
    22     -0.201800  3 C  py                40      0.197726  6 H  s          
    37     -0.179376  5 H  s                 30      0.173089  4 O  px         
    42      0.172661  7 H  s                 38     -0.155212  5 H  s          
 
 Vector   14  Occ=2.000000D+00  E=-2.648760D-01  Symmetry=a"
              MO Center= -1.3D-01,  6.6D-01, -1.9D-16, r^2= 2.6D+00
   Bfn.  Coefficient  Atom+Function         Bfn.  Coefficient  Atom+Function  
  ----- ------------  ---------------      ----- ------------  ---------------
     5      0.385595  1 C  pz                14      0.365721  2 C  pz         
    32     -0.288592  4 O  pz                 9      0.268342  1 C  pz         
    18      0.242638  2 C  pz                36     -0.202462  4 O  pz         
 
 Vector   15  Occ=2.000000D+00  E=-2.050912D-01  Symmetry=a'
              MO Center=  7.9D-02, -1.3D+00,  2.7D-18, r^2= 1.7D+00
   Bfn.  Coefficient  Atom+Function         Bfn.  Coefficient  Atom+Function  
  ----- ------------  ---------------      ----- ------------  ---------------
    30      0.546943  4 O  px                15      0.447307  2 C  s          
    34      0.377365  4 O  px                44     -0.301367  8 H  s          
    31     -0.228464  4 O  py                13     -0.193276  2 C  py         
    43     -0.184703  8 H  s                 16      0.172845  2 C  px         
    35     -0.161695  4 O  py         
 
 Vector   16  Occ=0.000000D+00  E=-9.596533D-02  Symmetry=a"
              MO Center=  7.2D-02,  9.7D-02,  7.3D-17, r^2= 3.2D+00
   Bfn.  Coefficient  Atom+Function         Bfn.  Coefficient  Atom+Function  
  ----- ------------  ---------------      ----- ------------  ---------------
     9     -0.422442  1 C  pz                 5     -0.385572  1 C  pz         
    32     -0.375161  4 O  pz                23      0.356174  3 C  pz         
    36     -0.337425  4 O  pz                27      0.305738  3 C  pz         
    18      0.251926  2 C  pz                14      0.208876  2 C  pz         
 
 Vector   17  Occ=0.000000D+00  E= 1.842700D-02  Symmetry=a"
              MO Center= -3.8D-02,  1.4D-01, -1.9D-17, r^2= 2.6D+00
   Bfn.  Coefficient  Atom+Function         Bfn.  Coefficient  Atom+Function  
  ----- ------------  ---------------      ----- ------------  ---------------
    18      0.653004  2 C  pz                27     -0.544926  3 C  pz         
     9     -0.457180  1 C  pz                14      0.443840  2 C  pz         
    23     -0.421600  3 C  pz                36      0.302618  4 O  pz         
    32      0.256351  4 O  pz                 5     -0.247840  1 C  pz         
 
 Vector   18  Occ=0.000000D+00  E= 8.442645D-02  Symmetry=a'
              MO Center=  8.4D-01,  1.5D+00, -2.9D-17, r^2= 4.1D+00
   Bfn.  Coefficient  Atom+Function         Bfn.  Coefficient  Atom+Function  
  ----- ------------  ---------------      ----- ------------  ---------------
     6      1.700084  1 C  s                 40     -1.280256  6 H  s          
    38     -1.057869  5 H  s                 44     -0.889682  8 H  s          
    24      0.670201  3 C  s                 25      0.499307  3 C  px         
     8      0.455905  1 C  py                 7      0.352879  1 C  px         
    21      0.202312  3 C  px                17     -0.197035  2 C  py         
 
 Vector   19  Occ=0.000000D+00  E= 8.850517D-02  Symmetry=a'
              MO Center= -7.3D-01,  1.1D+00, -4.0D-17, r^2= 4.5D+00
   Bfn.  Coefficient  Atom+Function         Bfn.  Coefficient  Atom+Function  
  ----- ------------  ---------------      ----- ------------  ---------------
    42      1.363980  7 H  s                 38      1.113869  5 H  s          
    15     -1.035678  2 C  s                 44     -0.642938  8 H  s          
    40     -0.488327  6 H  s                 16      0.483305  2 C  px         
     6     -0.465996  1 C  s                  7      0.462100  1 C  px         
     8     -0.446974  1 C  py                24      0.386047  3 C  s          
 
 Vector   20  Occ=0.000000D+00  E= 1.286544D-01  Symmetry=a'
              MO Center=  1.1D+00,  3.4D-01, -1.3D-16, r^2= 3.7D+00
   Bfn.  Coefficient  Atom+Function         Bfn.  Coefficient  Atom+Function  
  ----- ------------  ---------------      ----- ------------  ---------------
    24     -1.670652  3 C  s                 44      1.471463  8 H  s          
    40     -1.134099  6 H  s                  6      1.005717  1 C  s          
    17     -0.658131  2 C  py                26     -0.622449  3 C  py         
    25     -0.432053  3 C  px                 7      0.399898  1 C  px         
    16      0.368155  2 C  px                42      0.274388  7 H  s          
 
 Vector   21  Occ=0.000000D+00  E= 1.627881D-01  Symmetry=a'
              MO Center= -8.0D-01,  1.3D+00,  8.1D-17, r^2= 4.6D+00
   Bfn.  Coefficient  Atom+Function         Bfn.  Coefficient  Atom+Function  
  ----- ------------  ---------------      ----- ------------  ---------------
    15      1.705057  2 C  s                 42     -1.642756  7 H  s          
    38      1.412106  5 H  s                  7      1.130948  1 C  px         
    16     -0.941623  2 C  px                40     -0.827058  6 H  s          
     6     -0.662175  1 C  s                 44     -0.547272  8 H  s          
    25      0.541939  3 C  px                 8     -0.339157  1 C  py         
 
 Vector   22  Occ=0.000000D+00  E= 2.362689D-01  Symmetry=a'
              MO Center=  3.2D-01, -7.6D-01,  3.1D-16, r^2= 3.4D+00
   Bfn.  Coefficient  Atom+Function         Bfn.  Coefficient  Atom+Function  
  ----- ------------  ---------------      ----- ------------  ---------------
    26      2.171967  3 C  py                33      1.964029  4 O  s          
    24     -1.063055  3 C  s                 16     -0.909772  2 C  px         
     6      0.758318  1 C  s                 15     -0.745538  2 C  s          
    35      0.727445  4 O  py                42     -0.518593  7 H  s          
    25      0.496493  3 C  px                40     -0.483658  6 H  s          
 
 Vector   23  Occ=0.000000D+00  E= 2.806797D-01  Symmetry=a'
              MO Center=  1.4D-01,  1.2D+00,  2.5D-16, r^2= 3.7D+00
   Bfn.  Coefficient  Atom+Function         Bfn.  Coefficient  Atom+Function  
  ----- ------------  ---------------      ----- ------------  ---------------
    15      3.705630  2 C  s                  8      2.483145  1 C  py         
     6     -2.395555  1 C  s                 16      2.177256  2 C  px         
    24     -1.788231  3 C  s                 26     -1.064000  3 C  py         
    42      1.024177  7 H  s                 38     -0.981590  5 H  s          
    17      0.567682  2 C  py                40      0.440016  6 H  s          
 
 Vector   24  Occ=0.000000D+00  E= 3.220592D-01  Symmetry=a'
              MO Center=  2.0D-03,  6.9D-01, -3.0D-16, r^2= 3.9D+00
   Bfn.  Coefficient  Atom+Function         Bfn.  Coefficient  Atom+Function  
  ----- ------------  ---------------      ----- ------------  ---------------
    17      3.294895  2 C  py                 6     -2.402204  1 C  s          
    24      1.906966  3 C  s                 25     -1.756148  3 C  px         
     7      1.637880  1 C  px                 8      1.624324  1 C  py         
    40     -1.134090  6 H  s                 44      1.128589  8 H  s          
    15      0.969721  2 C  s                 33     -0.711821  4 O  s          
 
 Vector   25  Occ=0.000000D+00  E= 4.682304D-01  Symmetry=a"
              MO Center=  1.9D-01,  4.9D-01, -1.9D-15, r^2= 3.1D+00
   Bfn.  Coefficient  Atom+Function         Bfn.  Coefficient  Atom+Function  
  ----- ------------  ---------------      ----- ------------  ---------------
    27      0.741671  3 C  pz                23     -0.681442  3 C  pz         
     5     -0.636569  1 C  pz                 9      0.622391  1 C  pz         
    14     -0.457411  2 C  pz                18      0.190134  2 C  pz         
 
 Vector   26  Occ=0.000000D+00  E= 4.938504D-01  Symmetry=a'
              MO Center= -3.9D-01,  8.9D-01,  6.0D-16, r^2= 3.0D+00
   Bfn.  Coefficient  Atom+Function         Bfn.  Coefficient  Atom+Function  
  ----- ------------  ---------------      ----- ------------  ---------------
    17      1.259050  2 C  py                 6     -0.809471  1 C  s          
    24      0.752855  3 C  s                 15      0.701643  2 C  s          
    26     -0.678259  3 C  py                33     -0.614889  4 O  s          
     7     -0.600969  1 C  px                13     -0.541342  2 C  py         
     4      0.496219  1 C  py                16      0.474073  2 C  px         
 
 Vector   27  Occ=0.000000D+00  E= 5.472138D-01  Symmetry=a"
              MO Center=  2.5D-01,  5.7D-01, -9.4D-16, r^2= 3.7D+00
   Bfn.  Coefficient  Atom+Function         Bfn.  Coefficient  Atom+Function  
  ----- ------------  ---------------      ----- ------------  ---------------
    27      0.966258  3 C  pz                 9     -0.836824  1 C  pz         
     5      0.761368  1 C  pz                23     -0.712797  3 C  pz         
 

 center of mass
 --------------
 x =  -0.02367988 y =  -0.14861971 z =   0.00000000

 moments of inertia (a.u.)
 ------------------
         386.798472072843           0.000000000000           0.000000000000
           0.000000000000          37.350689219708           0.000000000000
           0.000000000000           0.000000000000         424.149161292551
 
     Multipole analysis of the density
     ---------------------------------
 
     L   x y z        total         alpha         beta         nuclear
     -   - - -        -----         -----         ----         -------
     0   0 0 0      0.000000    -15.000000    -15.000000     30.000000
 
     1   1 0 0      0.199512      0.099756      0.099756      0.000000
     1   0 1 0      1.228616      0.614308      0.614308      0.000000
     1   0 0 1      0.000000      0.000000      0.000000      0.000000
 
     2   2 0 0    -16.105352    -22.794756    -22.794756     29.484160
     2   1 1 0     -0.636091     -0.073329     -0.073329     -0.489433
     2   1 0 1      0.000000      0.000000      0.000000      0.000000
     2   0 2 0    -19.828459   -116.728721   -116.728721    213.628982
     2   0 1 1      0.000000      0.000000      0.000000      0.000000
     2   0 0 2    -18.135532     -9.067766     -9.067766      0.000000
 

 Task  times  cpu:        3.6s     wall:        4.3s
 
 
                                NWChem Input Module
                                -------------------
 
 
 Summary of allocated global arrays
-----------------------------------
  No active global arrays



                         GA Statistics for process    0
                         ------------------------------

       create   destroy   get      put      acc     scatter   gather  read&inc
calls:  390      390     2.83e+04 1.49e+04 1.42e+04    0        0        0     
number of processes/call 1.11e+00 1.04e+00 1.00e+00 0.00e+00 0.00e+00
bytes total:             1.83e+07 2.04e+07 3.67e+06 0.00e+00 0.00e+00 0.00e+00
bytes remote:            1.05e+07 1.40e+07 1.99e+06 0.00e+00 0.00e+00 0.00e+00
Max memory consumed for GA by this process: 364824 bytes
 
MA_summarize_allocated_blocks: starting scan ...
MA_summarize_allocated_blocks: scan completed: 0 heap blocks, 0 stack blocks
MA usage statistics:

	allocation statistics:
					      heap	     stack
					      ----	     -----
	current number of blocks	         0	         0
	maximum number of blocks	        26	        54
	current total bytes		         0	         0
	maximum total bytes		   1583152	  22512200
	maximum total K-bytes		      1584	     22513
	maximum total M-bytes		         2	        23
 
 
                                     CITATION
                                     --------
                Please cite the following reference when publishing
                           results obtained with NWChem:
 
                 M. Valiev, E.J. Bylaska, N. Govind, K. Kowalski,
              T.P. Straatsma, H.J.J. van Dam, D. Wang, J. Nieplocha,
                        E. Apra, T.L. Windus, W.A. de Jong
                 "NWChem: a comprehensive and scalable open-source
                  solution for large scale molecular simulations"
                      Comput. Phys. Commun. 181, 1477 (2010)
                           doi:10.1016/j.cpc.2010.04.018
 
                              AUTHORS & CONTRIBUTORS
                              ----------------------
      E. J. Bylaska, W. A. de Jong, N. Govind, K. Kowalski, T. P. Straatsma,
     M. Valiev, H. J. J. van Dam, D. Wang, E. Apra, T. L. Windus, J. Hammond,
     J. Autschbach, P. Nichols, S. Hirata, M. T. Hackler, Y. Zhao, P.-D. Fan,
      R. J. Harrison, M. Dupuis, D. M. A. Smith, K. Glaesemann, J. Nieplocha,
      V. Tipparaju, M. Krishnan, A. Vazquez-Mayagoitia, L. Jensen, M. Swart,
      Q. Wu, T. Van Voorhis, A. A. Auer, M. Nooijen, L. D. Crosby, E. Brown,
             G. Cisneros, G. I. Fann, H. Fruchtl, J. Garza, K. Hirao,
        R. Kendall, J. A. Nichols, K. Tsemekhman, K. Wolinski, J. Anchell,
       D. Bernholdt, P. Borowski, T. Clark, D. Clerc, H. Dachsel, M. Deegan,
        K. Dyall, D. Elwood, E. Glendening, M. Gutowski, A. Hess, J. Jaffe,
        B. Johnson, J. Ju, R. Kobayashi, R. Kutteh, Z. Lin, R. Littlefield,
    X. Long, B. Meng, T. Nakajima, S. Niu, L. Pollack, M. Rosing, G. Sandrone,
       M. Stave, H. Taylor, G. Thomas, J. H. van Lenthe, A. Wong, Z. Zhang.

 Total times  cpu:        3.6s     wall:        4.4s
