 argument  1 = combined.nw
 


============================== echo of input deck ==============================
echo
title "total energy of benzene using various functionals"

start c6h6

geometry
 C    0.99261000     0.99261000     0.00000000
 C   -1.35593048     0.36332048     0.00000000
 C    0.36332048    -1.35593048     0.00000000
 C   -0.99261000    -0.99261000     0.00000000
 C    1.35593048    -0.36332048     0.00000000
 C   -0.36332048     1.35593048     0.00000000
 H    1.75792000     1.75792000     0.00000000
 H   -2.40136338     0.64344338     0.00000000
 H    0.64344338    -2.40136338     0.00000000
 H   -1.75792000    -1.75792000     0.00000000
 H    2.40136338    -0.64344338     0.00000000
 H   -0.64344338     2.40136338     0.00000000
end

basis
* library 3-21G
end

dft
  xc hfexch
end
task dft energy

dft
  xc b3lyp
end
task dft energy

dft
  xc pbe0
end
task dft energy

dft
  xc xpbe96 cpbe96
end
task dft energy
================================================================================


                                         
                                         
 
 
              Northwest Computational Chemistry Package (NWChem) 6.0
              ------------------------------------------------------
 
 
                    Environmental Molecular Sciences Laboratory
                       Pacific Northwest National Laboratory
                                Richland, WA 99352
 
                              Copyright (c) 1994-2010
                       Pacific Northwest National Laboratory
                            Battelle Memorial Institute
 
             NWChem is an open-source computational chemistry package
                        distributed under the terms of the
                      Educational Community License (ECL) 2.0
             A copy of the license is included with this distribution
                              in the LICENSE.TXT file
 
                                  ACKNOWLEDGMENT
                                  --------------

            This software and its documentation were developed at the
            EMSL at Pacific Northwest National Laboratory, a multiprogram
            national laboratory, operated for the U.S. Department of Energy
            by Battelle under Contract Number DE-AC05-76RL01830. Support
            for this work was provided by the Department of Energy Office
            of Biological and Environmental Research, Office of Basic
            Energy Sciences, and the Office of Advanced Scientific Computing.


           Job information
           ---------------

    hostname      = curie
    program       = ../../../bin/LINUX64/nwchem
    date          = Mon Nov 15 16:58:12 2010

    compiled      = Mon_Nov_15_10:21:04_2010
    source        = /home/niri/nwchem/nwchem-6.0
    nwchem branch = 6.0
    input         = combined.nw
    prefix        = c6h6.
    data base     = ./c6h6.db
    status        = startup
    nproc         =        4
    time left     =     -1s



           Memory information
           ------------------

    heap     =   13107201 doubles =    100.0 Mbytes
    stack    =   13107201 doubles =    100.0 Mbytes
    global   =   26214400 doubles =    200.0 Mbytes (distinct from heap & stack)
    total    =   52428802 doubles =    400.0 Mbytes
    verify   = yes
    hardfail = no 


           Directory information
           ---------------------
 
  0 permanent = .
  0 scratch   = .
 
 
 
 
                                NWChem Input Module
                                -------------------
 
 
                 total energy of benzene using various functionals
                 -------------------------------------------------

 Scaling coordinates for geometry "geometry" by  1.889725989
 (inverse scale =  0.529177249)

 D6H symmetry detected

          ------
          auto-z
          ------
 
 
                             Geometry "geometry" -> ""
                             -------------------------
 
 Output coordinates in angstroms (scale by  1.889725989 to convert to a.u.)
 
  No.       Tag          Charge          X              Y              Z
 ---- ---------------- ---------- -------------- -------------- --------------
    1 C                    6.0000     0.99261000     0.99261000     0.00000000
    2 C                    6.0000    -1.35593048     0.36332048     0.00000000
    3 C                    6.0000     0.36332048    -1.35593048     0.00000000
    4 C                    6.0000    -0.99261000    -0.99261000     0.00000000
    5 C                    6.0000     1.35593048    -0.36332048     0.00000000
    6 C                    6.0000    -0.36332048     1.35593048     0.00000000
    7 H                    1.0000     1.75792000     1.75792000     0.00000000
    8 H                    1.0000    -2.40136338     0.64344338     0.00000000
    9 H                    1.0000     0.64344338    -2.40136338     0.00000000
   10 H                    1.0000    -1.75792000    -1.75792000     0.00000000
   11 H                    1.0000     2.40136338    -0.64344338     0.00000000
   12 H                    1.0000    -0.64344338     2.40136338     0.00000000
 
      Atomic Mass 
      ----------- 
 
      C                 12.000000
      H                  1.007825
 

 Effective nuclear repulsion energy (a.u.)     202.4405395545

            Nuclear Dipole moment (a.u.) 
            ----------------------------
        X                 Y               Z
 ---------------- ---------------- ----------------
     0.0000000000     0.0000000000     0.0000000000
 
      Symmetry information
      --------------------
 
 Group name             D6h       
 Group number             30
 Group order              24
 No. of unique centers     2
 
      Symmetry unique atoms
 
     1    7
 


                                Z-matrix (autoz)
                                -------- 

 Units are Angstrom for bonds and degrees for angles
 
      Type          Name      I     J     K     L     M      Value
      ----------- --------  ----- ----- ----- ----- ----- ----------
    1 Stretch                  1     5                       1.40376
    2 Stretch                  1     6                       1.40376
    3 Stretch                  1     7                       1.08231
    4 Stretch                  2     4                       1.40376
    5 Stretch                  2     6                       1.40376
    6 Stretch                  2     8                       1.08231
    7 Stretch                  3     4                       1.40376
    8 Stretch                  3     5                       1.40376
    9 Stretch                  3     9                       1.08231
   10 Stretch                  4    10                       1.08231
   11 Stretch                  5    11                       1.08231
   12 Stretch                  6    12                       1.08231
   13 Bend                     1     5     3               120.00000
   14 Bend                     1     5    11               120.00000
   15 Bend                     1     6     2               120.00000
   16 Bend                     1     6    12               120.00000
   17 Bend                     2     4     3               120.00000
   18 Bend                     2     4    10               120.00000
   19 Bend                     2     6    12               120.00000
   20 Bend                     3     4    10               120.00000
   21 Bend                     3     5    11               120.00000
   22 Bend                     4     2     6               120.00000
   23 Bend                     4     2     8               120.00000
   24 Bend                     4     3     5               120.00000
   25 Bend                     4     3     9               120.00000
   26 Bend                     5     1     6               120.00000
   27 Bend                     5     1     7               120.00000
   28 Bend                     5     3     9               120.00000
   29 Bend                     6     1     7               120.00000
   30 Bend                     6     2     8               120.00000
   31 Torsion                  1     5     3     4           0.00000
   32 Torsion                  1     5     3     9         180.00000
   33 Torsion                  1     6     2     4           0.00000
   34 Torsion                  1     6     2     8         180.00000
   35 Torsion                  2     4     3     5           0.00000
   36 Torsion                  2     4     3     9         180.00000
   37 Torsion                  2     6     1     5           0.00000
   38 Torsion                  2     6     1     7         180.00000
   39 Torsion                  3     4     2     6           0.00000
   40 Torsion                  3     4     2     8         180.00000
   41 Torsion                  3     5     1     6           0.00000
   42 Torsion                  3     5     1     7         180.00000
   43 Torsion                  4     2     6    12         180.00000
   44 Torsion                  4     3     5    11         180.00000
   45 Torsion                  5     1     6    12         180.00000
   46 Torsion                  5     3     4    10         180.00000
   47 Torsion                  6     1     5    11         180.00000
   48 Torsion                  6     2     4    10         180.00000
   49 Torsion                  7     1     5    11           0.00000
   50 Torsion                  7     1     6    12           0.00000
   51 Torsion                  8     2     4    10           0.00000
   52 Torsion                  8     2     6    12           0.00000
   53 Torsion                  9     3     4    10           0.00000
   54 Torsion                  9     3     5    11           0.00000
 
 
            XYZ format geometry
            -------------------
    12
 geometry
 C                     0.99261000     0.99261000     0.00000000
 C                    -1.35593048     0.36332048     0.00000000
 C                     0.36332048    -1.35593048     0.00000000
 C                    -0.99261000    -0.99261000     0.00000000
 C                     1.35593048    -0.36332048     0.00000000
 C                    -0.36332048     1.35593048     0.00000000
 H                     1.75792000     1.75792000     0.00000000
 H                    -2.40136338     0.64344338     0.00000000
 H                     0.64344338    -2.40136338     0.00000000
 H                    -1.75792000    -1.75792000     0.00000000
 H                     2.40136338    -0.64344338     0.00000000
 H                    -0.64344338     2.40136338     0.00000000
 
 ==============================================================================
                                internuclear distances
 ------------------------------------------------------------------------------
       center one      |      center two      | atomic units |  angstroms
 ------------------------------------------------------------------------------
    4 C                |   2 C                |     2.65273  |     1.40376
    4 C                |   3 C                |     2.65273  |     1.40376
    5 C                |   1 C                |     2.65273  |     1.40376
    5 C                |   3 C                |     2.65273  |     1.40376
    6 C                |   1 C                |     2.65273  |     1.40376
    6 C                |   2 C                |     2.65273  |     1.40376
    7 H                |   1 C                |     2.04527  |     1.08231
    8 H                |   2 C                |     2.04527  |     1.08231
    9 H                |   3 C                |     2.04527  |     1.08231
   10 H                |   4 C                |     2.04527  |     1.08231
   11 H                |   5 C                |     2.04527  |     1.08231
   12 H                |   6 C                |     2.04527  |     1.08231
 ------------------------------------------------------------------------------
                         number of included internuclear distances:         12
 ==============================================================================



 ==============================================================================
                                 internuclear angles
 ------------------------------------------------------------------------------
        center 1       |       center 2       |       center 3       |  degrees
 ------------------------------------------------------------------------------
    5 C                |   1 C                |   6 C                |   120.00
    5 C                |   1 C                |   7 H                |   120.00
    6 C                |   1 C                |   7 H                |   120.00
    4 C                |   2 C                |   6 C                |   120.00
    4 C                |   2 C                |   8 H                |   120.00
    6 C                |   2 C                |   8 H                |   120.00
    4 C                |   3 C                |   5 C                |   120.00
    4 C                |   3 C                |   9 H                |   120.00
    5 C                |   3 C                |   9 H                |   120.00
    2 C                |   4 C                |   3 C                |   120.00
    2 C                |   4 C                |  10 H                |   120.00
    3 C                |   4 C                |  10 H                |   120.00
    1 C                |   5 C                |   3 C                |   120.00
    1 C                |   5 C                |  11 H                |   120.00
    3 C                |   5 C                |  11 H                |   120.00
    1 C                |   6 C                |   2 C                |   120.00
    1 C                |   6 C                |  12 H                |   120.00
    2 C                |   6 C                |  12 H                |   120.00
 ------------------------------------------------------------------------------
                            number of included internuclear angles:         18
 ==============================================================================



  library name resolved from: environment
  library file name is: </home/niri/nwchem/nwchem-6.0/src/basis/libraries/>
  


 Summary of "ao basis" -> "" (cartesian)
 ------------------------------------------------------------------------------
       Tag                 Description            Shells   Functions and Types
 ---------------- ------------------------------  ------  ---------------------
 *                           3-21G                    on all atoms 


  xc_inp: hfexch multiplicative factor not found.
 
                                 NWChem DFT Module
                                 -----------------
 
 
                 total energy of benzene using various functionals
 
 
                      Basis "ao basis" -> "ao basis" (cartesian)
                      -----
  C (Carbon)
  ----------
            Exponent  Coefficients 
       -------------- ---------------------------------------------------------
  1 S  1.72256000E+02  0.061767
  1 S  2.59109000E+01  0.358794
  1 S  5.53335000E+00  0.700713
 
  2 S  3.66498000E+00 -0.395897
  2 S  7.70545000E-01  1.215840
 
  3 P  3.66498000E+00  0.236460
  3 P  7.70545000E-01  0.860619
 
  4 S  1.95857000E-01  1.000000
 
  5 P  1.95857000E-01  1.000000
 
  H (Hydrogen)
  ------------
            Exponent  Coefficients 
       -------------- ---------------------------------------------------------
  1 S  5.44717800E+00  0.156285
  1 S  8.24547000E-01  0.904691
 
  2 S  1.83192000E-01  1.000000
 


 Summary of "ao basis" -> "ao basis" (cartesian)
 ------------------------------------------------------------------------------
       Tag                 Description            Shells   Functions and Types
 ---------------- ------------------------------  ------  ---------------------
 C                           3-21G                   5        9   3s2p
 H                           3-21G                   2        2   2s


  Caching 1-el integrals 
 
            General Information
            -------------------
          SCF calculation type: DFT
          Wavefunction type:  closed shell.
          No. of atoms     :    12
          No. of electrons :    42
           Alpha electrons :    21
            Beta electrons :    21
          Charge           :     0
          Spin multiplicity:     1
          Use of symmetry is: on ; symmetry adaption is: on 
          Maximum number of iterations:  30
          AO basis - number of functions:    66
                     number of shells:    42
          Convergence on energy requested: 1.00D-06
          Convergence on density requested: 1.00D-05
          Convergence on gradient requested: 5.00D-04
 
              XC Information
              --------------
                     Hartree-Fock (Exact) Exchange  1.000          
 
          Convergence Information
          -----------------------
          Convergence aids based upon iterative change in 
          total energy or number of iterations. 
          Levelshifting, if invoked, occurs when the 
          HOMO/LUMO gap drops below (HL_TOL): 1.00D-02
          DIIS, if invoked, will attempt to extrapolate 
          using up to (NFOCK): 10 stored Fock matrices.

                    Damping( 0%)  Levelshifting(0.5)       DIIS
                  --------------- ------------------- ---------------
          dE  on:    start            ASAP                start   
          dE off:    2 iters         30 iters            30 iters 

 
      Screening Tolerance Information
      -------------------------------
          Density screening/tol_rho: 1.00D-10
          AO Gaussian exp screening on grid/accAOfunc:  14
          CD Gaussian exp screening on grid/accCDfunc:  20
          XC Gaussian exp screening on grid/accXCfunc:  20
          Schwarz screening/accCoul: 1.00D-08

 
      Superposition of Atomic Density Guess
      -------------------------------------
 
 Sum of atomic energies:        -227.75976746
 
      Non-variational initial energy
      ------------------------------

 Total energy =    -231.937013
 1-e energy   =    -705.828643
 2-e energy   =     271.451090
 HOMO         =      -0.283977
 LUMO         =       0.017158
 
 
      Symmetry analysis of molecular orbitals - initial
      -------------------------------------------------
 
  Numbering of irreducible representations: 
 
     1 a1g         2 a1u         3 a2g         4 a2u         5 b1g     
     6 b1u         7 b2g         8 b2u         9 e1g        10 e1u     
    11 e2g        12 e2u     
 
  Orbital symmetries:
 
     1 a1g         2 e1u         3 e1u         4 b1u         5 e2g     
     6 e2g         7 a1g         8 e1u         9 e1u        10 e2g     
    11 e2g        12 a1g        13 b1u        14 b2u        15 e1u     
    16 e1u        17 a2u        18 e2g        19 e2g        20 e1g     
    21 e1g        22 e2u        23 e2u        24 a1g        25 b2g     
    26 e1u        27 e1u        28 e2g        29 e2g        30 b1u     
    31 e2g     
 
   Time after variat. SCF:      0.1
   Time prior to 1st pass:      0.1

 #quartets = 3.741D+04 #integrals = 1.411D+05 #direct =  0.0% #cached =100.0%


 Integral file          = ./c6h6.aoints.0
 Record size in doubles =  65536        No. of integs per rec  =  43688
 Max. records in memory =      3        Max. records in file   =   3197
 No. of bits per label  =      8        No. of bits per value  =     64


File balance: exchanges=     0  moved=     0  time=   0.0


           Memory utilization after 1st SCF pass: 
           Heap Space remaining (MW):       12.91            12907085
          Stack Space remaining (MW):       13.11            13106547

   convergence    iter        energy       DeltaE   RMS-Dens  Diis-err    time
 ---------------- ----- ----------------- --------- --------- ---------  ------
 d= 0,ls=0.0,diis     1   -229.3668943488 -4.32D+02  1.14D-02  2.57D-01     0.2
 d= 0,ls=0.0,diis     2   -229.4137454832 -4.69D-02  3.37D-03  1.40D-02     0.3
 d= 0,ls=0.0,diis     3   -229.4167317427 -2.99D-03  3.27D-04  2.58D-04     0.3
 d= 0,ls=0.0,diis     4   -229.4167713172 -3.96D-05  6.47D-05  1.11D-05     0.3
 d= 0,ls=0.0,diis     5   -229.4167733543 -2.04D-06  1.24D-05  1.24D-07     0.3
 d= 0,ls=0.0,diis     6   -229.4167733850 -3.07D-08  2.05D-06  3.02D-09     0.4


         Total DFT energy =     -229.416773384959
      One electron energy =     -709.316347040209
           Coulomb energy =      310.500998683138
    Exchange-Corr. energy =      -33.041964582411
 Nuclear repulsion energy =      202.440539554522

 Numeric. integr. density =        0.000000000000

     Total iterative time =      0.2s


 
                       DFT Final Molecular Orbital Analysis
                       ------------------------------------
 
 Vector    6  Occ=2.000000D+00  E=-1.118165D+01  Symmetry=a1g
              MO Center=  8.4D-17, -4.0D-17,  1.0D-21, r^2= 2.0D+00
   Bfn.  Coefficient  Atom+Function         Bfn.  Coefficient  Atom+Function  
  ----- ------------  ---------------      ----- ------------  ---------------
     1     -0.402774   1 C  s                28     -0.402774   4 C  s         
    37     -0.402774   5 C  s                10     -0.402774   2 C  s         
    19     -0.402774   3 C  s                46     -0.402774   6 C  s         
 
 Vector    7  Occ=2.000000D+00  E=-1.145006D+00  Symmetry=a1g
              MO Center= -5.6D-15, -6.5D-15, -6.9D-17, r^2= 2.1D+00
   Bfn.  Coefficient  Atom+Function         Bfn.  Coefficient  Atom+Function  
  ----- ------------  ---------------      ----- ------------  ---------------
    33     -0.184587   4 C  s                51     -0.184587   6 C  s         
    42     -0.184587   5 C  s                24     -0.184587   3 C  s         
    15     -0.184587   2 C  s                 6     -0.184587   1 C  s         
 
 Vector    8  Occ=2.000000D+00  E=-1.009437D+00  Symmetry=e1u
              MO Center=  6.8D-15,  4.7D-15,  3.7D-33, r^2= 2.9D+00
   Bfn.  Coefficient  Atom+Function         Bfn.  Coefficient  Atom+Function  
  ----- ------------  ---------------      ----- ------------  ---------------
     6     -0.317252   1 C  s                33      0.317252   4 C  s         
    42     -0.210177   5 C  s                15      0.210177   2 C  s         
 
 Vector    9  Occ=2.000000D+00  E=-1.009437D+00  Symmetry=e1u
              MO Center= -1.3D-15,  2.2D-15, -2.1D-32, r^2= 2.9D+00
   Bfn.  Coefficient  Atom+Function         Bfn.  Coefficient  Atom+Function  
  ----- ------------  ---------------      ----- ------------  ---------------
    51      0.304511   6 C  s                24     -0.304511   3 C  s         
    15      0.244986   2 C  s                42     -0.244986   5 C  s         
 
 Vector   10  Occ=2.000000D+00  E=-8.210215D-01  Symmetry=e2g
              MO Center=  1.2D-15,  1.8D-15,  2.0D-17, r^2= 3.7D+00
   Bfn.  Coefficient  Atom+Function         Bfn.  Coefficient  Atom+Function  
  ----- ------------  ---------------      ----- ------------  ---------------
     6      0.336139   1 C  s                33      0.336139   4 C  s         
    24     -0.233661   3 C  s                51     -0.233661   6 C  s         
    13     -0.171449   2 C  py               40      0.171449   5 C  py        
 
 Vector   11  Occ=2.000000D+00  E=-8.210215D-01  Symmetry=e2g
              MO Center= -1.7D-17,  9.7D-17, -1.3D-32, r^2= 3.7D+00
   Bfn.  Coefficient  Atom+Function         Bfn.  Coefficient  Atom+Function  
  ----- ------------  ---------------      ----- ------------  ---------------
    15     -0.328975   2 C  s                42     -0.328975   5 C  s         
    51      0.253236   6 C  s                24      0.253236   3 C  s         
 
 Vector   12  Occ=2.000000D+00  E=-7.116378D-01  Symmetry=a1g
              MO Center= -7.7D-15,  7.2D-15,  4.5D-17, r^2= 4.2D+00
   Bfn.  Coefficient  Atom+Function         Bfn.  Coefficient  Atom+Function  
  ----- ------------  ---------------      ----- ------------  ---------------
    12     -0.163126   2 C  px               49      0.163126   6 C  py        
    39      0.163126   5 C  px               22     -0.163126   3 C  py        
 
 Vector   13  Occ=2.000000D+00  E=-6.408311D-01  Symmetry=b1u
              MO Center=  6.9D-17, -5.6D-17,  2.6D-33, r^2= 5.3D+00
   Bfn.  Coefficient  Atom+Function         Bfn.  Coefficient  Atom+Function  
  ----- ------------  ---------------      ----- ------------  ---------------
     6      0.195324   1 C  s                15      0.195324   2 C  s         
    24      0.195324   3 C  s                33     -0.195324   4 C  s         
    42     -0.195324   5 C  s                51     -0.195324   6 C  s         
 
 Vector   14  Occ=2.000000D+00  E=-6.171075D-01  Symmetry=b2u
              MO Center= -9.1D-16,  1.7D-15,  9.0D-32, r^2= 2.8D+00
   Bfn.  Coefficient  Atom+Function         Bfn.  Coefficient  Atom+Function  
  ----- ------------  ---------------      ----- ------------  ---------------
    48     -0.235666   6 C  px               13      0.235666   2 C  py        
    21     -0.235666   3 C  px               40      0.235666   5 C  py        
     3      0.172520   1 C  px               30      0.172520   4 C  px        
    31     -0.172520   4 C  py                4     -0.172520   1 C  py        
 
 Vector   15  Occ=2.000000D+00  E=-5.885341D-01  Symmetry=e1u
              MO Center=  4.8D-15, -3.3D-16, -2.4D-32, r^2= 4.1D+00
   Bfn.  Coefficient  Atom+Function         Bfn.  Coefficient  Atom+Function  
  ----- ------------  ---------------      ----- ------------  ---------------
    39     -0.208565   5 C  px               12     -0.208565   2 C  px        
     4     -0.182404   1 C  py               31     -0.182404   4 C  py        
    43     -0.165866   5 C  px               16     -0.165866   2 C  px        
 
 Vector   16  Occ=2.000000D+00  E=-5.885341D-01  Symmetry=e1u
              MO Center=  2.2D-15, -8.2D-15, -2.6D-32, r^2= 4.1D+00
   Bfn.  Coefficient  Atom+Function         Bfn.  Coefficient  Atom+Function  
  ----- ------------  ---------------      ----- ------------  ---------------
    22      0.247879   3 C  py               49      0.247879   6 C  py        
    26      0.194623   3 C  py               53      0.194623   6 C  py        
    59     -0.153112   9 H  s                65      0.153112  12 H  s         
 
 Vector   17  Occ=2.000000D+00  E=-5.006225D-01  Symmetry=a2u
              MO Center=  1.1D-16,  1.4D-17,  2.3D-17, r^2= 2.8D+00
   Bfn.  Coefficient  Atom+Function         Bfn.  Coefficient  Atom+Function  
  ----- ------------  ---------------      ----- ------------  ---------------
     5      0.179936   1 C  pz               14      0.179936   2 C  pz        
    23      0.179936   3 C  pz               32      0.179936   4 C  pz        
    41      0.179936   5 C  pz               50      0.179936   6 C  pz        
    27      0.176567   3 C  pz               45      0.176567   5 C  pz        
    36      0.176567   4 C  pz               54      0.176567   6 C  pz        
 
 Vector   18  Occ=2.000000D+00  E=-4.902463D-01  Symmetry=e2g
              MO Center= -4.5D-16, -1.9D-15,  8.1D-18, r^2= 4.1D+00
   Bfn.  Coefficient  Atom+Function         Bfn.  Coefficient  Atom+Function  
  ----- ------------  ---------------      ----- ------------  ---------------
    43     -0.227480   5 C  px               16      0.227480   2 C  px        
    21      0.218293   3 C  px               48     -0.218293   6 C  px        
    30     -0.208769   4 C  px                3      0.208769   1 C  px        
    39     -0.187887   5 C  px               12      0.187887   2 C  px        
     7      0.181120   1 C  px               34     -0.181120   4 C  px        
 
 Vector   19  Occ=2.000000D+00  E=-4.902463D-01  Symmetry=e2g
              MO Center=  9.6D-16, -1.7D-16,  4.8D-32, r^2= 4.1D+00
   Bfn.  Coefficient  Atom+Function         Bfn.  Coefficient  Atom+Function  
  ----- ------------  ---------------      ----- ------------  ---------------
    40      0.222079   5 C  py               13     -0.222079   2 C  py        
    26     -0.219075   3 C  py               53      0.219075   6 C  py        
     4     -0.201197   1 C  py               31      0.201197   4 C  py        
     8     -0.197930   1 C  py               35      0.197930   4 C  py        
    22     -0.191673   3 C  py               49      0.191673   6 C  py        
 
 Vector   20  Occ=2.000000D+00  E=-3.357374D-01  Symmetry=e1g
              MO Center=  3.3D-16, -4.7D-16, -3.2D-17, r^2= 3.1D+00
   Bfn.  Coefficient  Atom+Function         Bfn.  Coefficient  Atom+Function  
  ----- ------------  ---------------      ----- ------------  ---------------
    45      0.286327   5 C  pz               18     -0.286327   2 C  pz        
    36     -0.278481   4 C  pz                9      0.278481   1 C  pz        
    41      0.234990   5 C  pz               14     -0.234990   2 C  pz        
    32     -0.228550   4 C  pz                5      0.228550   1 C  pz        
 
 Vector   21  Occ=2.000000D+00  E=-3.357374D-01  Symmetry=e1g
              MO Center=  4.4D-16,  4.4D-16, -7.4D-17, r^2= 3.1D+00
   Bfn.  Coefficient  Atom+Function         Bfn.  Coefficient  Atom+Function  
  ----- ------------  ---------------      ----- ------------  ---------------
    54     -0.326092   6 C  pz               27      0.326092   3 C  pz        
    23      0.267625   3 C  pz               50     -0.267625   6 C  pz        
     9     -0.169841   1 C  pz               36      0.169841   4 C  pz        
    45      0.156251   5 C  pz               18     -0.156251   2 C  pz        
 
 Vector   22  Occ=0.000000D+00  E= 1.459816D-01  Symmetry=e2u
              MO Center= -1.6D-33,  4.4D-16, -5.6D-18, r^2= 3.5D+00
   Bfn.  Coefficient  Atom+Function         Bfn.  Coefficient  Atom+Function  
  ----- ------------  ---------------      ----- ------------  ---------------
     9     -0.531310   1 C  pz               36     -0.531310   4 C  pz        
    54      0.500512   6 C  pz               27      0.500512   3 C  pz        
    32     -0.239814   4 C  pz                5     -0.239814   1 C  pz        
    50      0.225913   6 C  pz               23      0.225913   3 C  pz        
 
 Vector   23  Occ=0.000000D+00  E= 1.459816D-01  Symmetry=e2u
              MO Center= -6.7D-16,  6.8D-33, -1.9D-17, r^2= 3.5D+00
   Bfn.  Coefficient  Atom+Function         Bfn.  Coefficient  Atom+Function  
  ----- ------------  ---------------      ----- ------------  ---------------
    18     -0.595723   2 C  pz               45     -0.595723   5 C  pz        
    27      0.324534   3 C  pz               54      0.324534   6 C  pz        
     9      0.271189   1 C  pz               36      0.271189   4 C  pz        
    14     -0.268888   2 C  pz               41     -0.268888   5 C  pz        
 
 Vector   24  Occ=0.000000D+00  E= 2.546181D-01  Symmetry=a1g
              MO Center= -3.9D-16, -2.8D-16,  0.0D+00, r^2= 8.1D+00
   Bfn.  Coefficient  Atom+Function         Bfn.  Coefficient  Atom+Function  
  ----- ------------  ---------------      ----- ------------  ---------------
    58     -0.733361   8 H  s                60     -0.733361   9 H  s         
    56     -0.733361   7 H  s                62     -0.733361  10 H  s         
    64     -0.733361  11 H  s                66     -0.733361  12 H  s         
    15      0.534084   2 C  s                24      0.534084   3 C  s         
    42      0.534084   5 C  s                51      0.534084   6 C  s         
 
 Vector   25  Occ=0.000000D+00  E= 3.217565D-01  Symmetry=e1u
              MO Center=  3.2D-15,  5.2D-14, -3.0D-17, r^2= 8.6D+00
   Bfn.  Coefficient  Atom+Function         Bfn.  Coefficient  Atom+Function  
  ----- ------------  ---------------      ----- ------------  ---------------
    58     -1.155656   8 H  s                64      1.155656  11 H  s         
    66     -0.830111  12 H  s                60      0.830111   9 H  s         
    42     -0.775072   5 C  s                15      0.775072   2 C  s         
    16     -0.623006   2 C  px               43     -0.623006   5 C  px        
    51      0.556737   6 C  s                24     -0.556737   3 C  s         
 
 Vector   26  Occ=0.000000D+00  E= 3.217565D-01  Symmetry=e1u
              MO Center= -1.0D-15, -1.6D-15,  1.5D-17, r^2= 8.6D+00
   Bfn.  Coefficient  Atom+Function         Bfn.  Coefficient  Atom+Function  
  ----- ------------  ---------------      ----- ------------  ---------------
    62     -1.146483  10 H  s                56      1.146483   7 H  s         
    60     -0.855172   9 H  s                66      0.855172  12 H  s         
    33      0.768920   4 C  s                 6     -0.768920   1 C  s         
    51     -0.573544   6 C  s                24      0.573544   3 C  s         
    34     -0.459999   4 C  px                7     -0.459999   1 C  px        
 
 Vector   27  Occ=0.000000D+00  E= 3.644458D-01  Symmetry=b2g
              MO Center=  2.2D-16,  5.3D-16,  3.2D-23, r^2= 3.8D+00
   Bfn.  Coefficient  Atom+Function         Bfn.  Coefficient  Atom+Function  
  ----- ------------  ---------------      ----- ------------  ---------------
    54      0.620218   6 C  pz               45      0.620218   5 C  pz        
     9     -0.620218   1 C  pz               27     -0.620218   3 C  pz        
    36      0.620218   4 C  pz               18     -0.620218   2 C  pz        
     5     -0.210799   1 C  pz               32      0.210799   4 C  pz        
    23     -0.210799   3 C  pz               14     -0.210799   2 C  pz        
 
 Vector   28  Occ=0.000000D+00  E= 3.656567D-01  Symmetry=e2g
              MO Center=  1.8D-14, -9.5D-15,  3.3D-29, r^2= 8.5D+00
   Bfn.  Coefficient  Atom+Function         Bfn.  Coefficient  Atom+Function  
  ----- ------------  ---------------      ----- ------------  ---------------
    42      1.294209   5 C  s                15      1.294209   2 C  s         
    33     -1.258015   4 C  s                 6     -1.258015   1 C  s         
    64     -1.050184  11 H  s                58     -1.050184   8 H  s         
    62      1.020815  10 H  s                56      1.020815   7 H  s         
    43      0.506304   5 C  px               16     -0.506304   2 C  px        
 
 Vector   29  Occ=0.000000D+00  E= 3.656567D-01  Symmetry=e2g
              MO Center=  2.8D-13, -1.3D-12, -3.8D-17, r^2= 8.5D+00
   Bfn.  Coefficient  Atom+Function         Bfn.  Coefficient  Atom+Function  
  ----- ------------  ---------------      ----- ------------  ---------------
    24     -1.473527   3 C  s                51     -1.473527   6 C  s         
    60      1.195692   9 H  s                66      1.195692  12 H  s         
    33      0.768108   4 C  s                 6      0.768108   1 C  s         
    42      0.705419   5 C  s                15      0.705419   2 C  s         
    62     -0.623281  10 H  s                56     -0.623281   7 H  s         
 
 Vector   30  Occ=0.000000D+00  E= 3.682701D-01  Symmetry=b1u
              MO Center= -2.9D-13,  1.2D-12, -3.1D-23, r^2= 9.5D+00
   Bfn.  Coefficient  Atom+Function         Bfn.  Coefficient  Atom+Function  
  ----- ------------  ---------------      ----- ------------  ---------------
    66     -1.077885  12 H  s                56      1.077885   7 H  s         
    58      1.077885   8 H  s                62     -1.077885  10 H  s         
    64     -1.077885  11 H  s                60      1.077885   9 H  s         
    53      0.933935   6 C  py               16      0.933935   2 C  px        
    43      0.933935   5 C  px               26      0.933935   3 C  py        
 
 Vector   31  Occ=0.000000D+00  E= 4.990935D-01  Symmetry=e2g
              MO Center=  1.9D-15, -1.7D-16,  3.7D-31, r^2= 4.9D+00
   Bfn.  Coefficient  Atom+Function         Bfn.  Coefficient  Atom+Function  
  ----- ------------  ---------------      ----- ------------  ---------------
    15      1.581050   2 C  s                42      1.581050   5 C  s         
    43     -1.411766   5 C  px               16      1.411766   2 C  px        
    24     -1.369933   3 C  s                51     -1.369933   6 C  s         
    53      1.277877   6 C  py               26     -1.277877   3 C  py        
    64      0.798174  11 H  s                58      0.798174   8 H  s         
 
 Vector   32  Occ=0.000000D+00  E= 4.990935D-01  Symmetry=e2g
              MO Center= -4.8D-15, -1.1D-13,  1.4D-18, r^2= 4.9D+00
   Bfn.  Coefficient  Atom+Function         Bfn.  Coefficient  Atom+Function  
  ----- ------------  ---------------      ----- ------------  ---------------
    33      1.703751   4 C  s                 6      1.703751   1 C  s         
    34      1.119573   4 C  px                7     -1.119573   1 C  px        
    24     -1.034708   3 C  s                51     -1.034708   6 C  s         
     8     -0.981085   1 C  py               35      0.981085   4 C  py        
    62      0.860117  10 H  s                56      0.860117   7 H  s         
 
 Vector   33  Occ=0.000000D+00  E= 5.131033D-01  Symmetry=e1u
              MO Center=  5.1D-14,  4.0D-14, -2.6D-18, r^2= 4.9D+00
   Bfn.  Coefficient  Atom+Function         Bfn.  Coefficient  Atom+Function  
  ----- ------------  ---------------      ----- ------------  ---------------
    52      1.702806   6 C  px               25      1.702806   3 C  px        
     6     -1.671988   1 C  s                33      1.671988   4 C  s         
    44      1.248132   5 C  py               17      1.248132   2 C  py        
    15      1.196114   2 C  s                42     -1.196114   5 C  s         
    26      0.517614   3 C  py               53      0.517614   6 C  py        
 

 center of mass
 --------------
 x =   0.00000000 y =   0.00000000 z =   0.00000000

 moments of inertia (a.u.)
 ------------------
         320.062201089014           0.000000000000           0.000000000000
           0.000000000000         320.062201089014           0.000000000000
           0.000000000000           0.000000000000         640.124402178028
 
     Multipole analysis of the density
     ---------------------------------
 
     L   x y z        total         alpha         beta         nuclear
     -   - - -        -----         -----         ----         -------
     0   0 0 0      0.000000    -21.000000    -21.000000     42.000000
 
     1   1 0 0      0.000000      0.000000      0.000000      0.000000
     1   0 1 0      0.000000      0.000000      0.000000      0.000000
     1   0 0 1      0.000000      0.000000      0.000000      0.000000
 
     2   2 0 0    -23.337614   -108.108224   -108.108224    192.878835
     2   1 1 0      0.000000      0.000000      0.000000      0.000000
     2   1 0 1      0.000000      0.000000      0.000000      0.000000
     2   0 2 0    -23.337614   -108.108224   -108.108224    192.878835
     2   0 1 1      0.000000      0.000000      0.000000      0.000000
     2   0 0 2    -30.731475    -15.365738    -15.365738      0.000000
 

 Parallel integral file used       4 records with       0 large values


 Task  times  cpu:        0.4s     wall:        0.7s
 
 
                                NWChem Input Module
                                -------------------
 
 
 
                                 NWChem DFT Module
                                 -----------------
 
 
                 total energy of benzene using various functionals
 
 
  Caching 1-el integrals 
 
            General Information
            -------------------
          SCF calculation type: DFT
          Wavefunction type:  closed shell.
          No. of atoms     :    12
          No. of electrons :    42
           Alpha electrons :    21
            Beta electrons :    21
          Charge           :     0
          Spin multiplicity:     1
          Use of symmetry is: on ; symmetry adaption is: on 
          Maximum number of iterations:  30
          AO basis - number of functions:    66
                     number of shells:    42
          Convergence on energy requested: 1.00D-06
          Convergence on density requested: 1.00D-05
          Convergence on gradient requested: 5.00D-04
 
              XC Information
              --------------
                         B3LYP Method XC Potential
                     Hartree-Fock (Exact) Exchange  0.200          
                        Slater Exchange Functional  0.800 local    
                    Becke 1988 Exchange Functional  0.720 non-local
              Lee-Yang-Parr Correlation Functional  0.810          
                  VWN I RPA Correlation Functional  0.190 local    
 
             Grid Information
             ----------------
          Grid used for XC integration:  medium    
          Radial quadrature: Mura-Knowles        
          Angular quadrature: Lebedev. 
          Tag              B.-S. Rad. Rad. Pts. Rad. Cut. Ang. Pts.
          ---              ---------- --------- --------- ---------
          C                   0.70       49          10.0       434
          H                   0.35       45          11.0       434
          Grid pruning is: on 
          Number of quadrature shells:    94
          Spatial weights used:  Erf1
 
          Convergence Information
          -----------------------
          Convergence aids based upon iterative change in 
          total energy or number of iterations. 
          Levelshifting, if invoked, occurs when the 
          HOMO/LUMO gap drops below (HL_TOL): 1.00D-02
          DIIS, if invoked, will attempt to extrapolate 
          using up to (NFOCK): 10 stored Fock matrices.

                    Damping( 0%)  Levelshifting(0.5)       DIIS
                  --------------- ------------------- ---------------
          dE  on:    start            ASAP                start   
          dE off:    2 iters         30 iters            30 iters 

 
      Screening Tolerance Information
      -------------------------------
          Density screening/tol_rho: 1.00D-10
          AO Gaussian exp screening on grid/accAOfunc:  14
          CD Gaussian exp screening on grid/accCDfunc:  20
          XC Gaussian exp screening on grid/accXCfunc:  20
          Schwarz screening/accCoul: 1.00D-08


 Loading old vectors from job with title :

total energy of benzene using various functionals

 
      Symmetry analysis of molecular orbitals - initial
      -------------------------------------------------
 
  Numbering of irreducible representations: 
 
     1 a1g         2 a1u         3 a2g         4 a2u         5 b1g     
     6 b1u         7 b2g         8 b2u         9 e1g        10 e1u     
    11 e2g        12 e2u     
 
  Orbital symmetries:
 
     1 b1u         2 e2g         3 e2g         4 e1u         5 e1u     
     6 a1g         7 a1g         8 e1u         9 e1u        10 e2g     
    11 e2g        12 a1g        13 b1u        14 b2u        15 e1u     
    16 e1u        17 a2u        18 e2g        19 e2g        20 e1g     
    21 e1g        22 e2u        23 e2u        24 a1g        25 e1u     
    26 e1u        27 b2g        28 e2g        29 e2g        30 b1u     
    31 e2g     
 
   Time after variat. SCF:      0.5
   Time prior to 1st pass:      0.5

 #quartets = 3.619D+04 #integrals = 1.410D+05 #direct =  0.0% #cached =100.0%


 Integral file          = ./c6h6.aoints.0
 Record size in doubles =  65536        No. of integs per rec  =  43688
 Max. records in memory =      3        Max. records in file   =   3197
 No. of bits per label  =      8        No. of bits per value  =     64


File balance: exchanges=     0  moved=     0  time=   0.0


 Grid_pts file          = ./c6h6.gridpts.0
 Record size in doubles =  12289        No. of grid_pts per rec  =   3070
 Max. records in memory =      5        Max. recs in file   =     17053


           Memory utilization after 1st SCF pass: 
           Heap Space remaining (MW):       12.85            12845578
          Stack Space remaining (MW):       13.11            13106547

   convergence    iter        energy       DeltaE   RMS-Dens  Diis-err    time
 ---------------- ----- ----------------- --------- --------- ---------  ------
 d= 0,ls=0.0,diis     1   -230.9545553495 -4.33D+02  1.27D-02  2.98D-01     0.6
 d= 0,ls=0.0,diis     2   -230.9716969392 -1.71D-02  3.58D-03  2.86D-02     0.7
 d= 0,ls=0.0,diis     3   -230.9739437780 -2.25D-03  1.63D-03  1.13D-02     0.8
 d= 0,ls=0.0,diis     4   -230.9755207222 -1.58D-03  9.87D-05  1.16D-05     0.9
 d= 0,ls=0.0,diis     5   -230.9755227190 -2.00D-06  4.57D-06  1.82D-08     1.0
 d= 0,ls=0.0,diis     6   -230.9755227222 -3.21D-09  1.72D-07  1.17D-10     1.1


         Total DFT energy =     -230.975522722241
      One electron energy =     -710.329199639567
           Coulomb energy =      311.561884289667
    Exchange-Corr. energy =      -34.648746926863
 Nuclear repulsion energy =      202.440539554522

 Numeric. integr. density =       41.999994036744

     Total iterative time =      0.6s


 
                       DFT Final Molecular Orbital Analysis
                       ------------------------------------
 
 Vector    6  Occ=2.000000D+00  E=-1.012684D+01  Symmetry=a1g
              MO Center= -9.5D-12,  3.4D-12,  1.6D-21, r^2= 2.0D+00
   Bfn.  Coefficient  Atom+Function         Bfn.  Coefficient  Atom+Function  
  ----- ------------  ---------------      ----- ------------  ---------------
    10     -0.402317   2 C  s                46     -0.402317   6 C  s         
    28     -0.402317   4 C  s                 1     -0.402317   1 C  s         
    19     -0.402317   3 C  s                37     -0.402317   5 C  s         
 
 Vector    7  Occ=2.000000D+00  E=-8.521220D-01  Symmetry=a1g
              MO Center=  2.1D-16, -3.6D-17, -9.0D-34, r^2= 2.1D+00
   Bfn.  Coefficient  Atom+Function         Bfn.  Coefficient  Atom+Function  
  ----- ------------  ---------------      ----- ------------  ---------------
    24     -0.183418   3 C  s                42     -0.183418   5 C  s         
     6     -0.183418   1 C  s                15     -0.183418   2 C  s         
    51     -0.183418   6 C  s                33     -0.183418   4 C  s         
 
 Vector    8  Occ=2.000000D+00  E=-7.447206D-01  Symmetry=e1u
              MO Center=  4.5D-15, -1.1D-15, -1.0D-16, r^2= 2.9D+00
   Bfn.  Coefficient  Atom+Function         Bfn.  Coefficient  Atom+Function  
  ----- ------------  ---------------      ----- ------------  ---------------
     6     -0.295990   1 C  s                33      0.295990   4 C  s         
    24      0.260809   3 C  s                51     -0.260809   6 C  s         
 
 Vector    9  Occ=2.000000D+00  E=-7.447206D-01  Symmetry=e1u
              MO Center= -2.6D-16,  1.9D-16,  4.7D-32, r^2= 2.9D+00
   Bfn.  Coefficient  Atom+Function         Bfn.  Coefficient  Atom+Function  
  ----- ------------  ---------------      ----- ------------  ---------------
    15     -0.321468   2 C  s                42      0.321468   5 C  s         
    51     -0.191201   6 C  s                24      0.191201   3 C  s         
 
 Vector   10  Occ=2.000000D+00  E=-6.043780D-01  Symmetry=e2g
              MO Center= -2.9D-15,  3.9D-15, -1.2D-16, r^2= 3.7D+00
   Bfn.  Coefficient  Atom+Function         Bfn.  Coefficient  Atom+Function  
  ----- ------------  ---------------      ----- ------------  ---------------
    51      0.293584   6 C  s                24      0.293584   3 C  s         
    15     -0.292659   2 C  s                42     -0.292659   5 C  s         
 
 Vector   11  Occ=2.000000D+00  E=-6.043780D-01  Symmetry=e2g
              MO Center= -3.3D-15, -1.3D-15,  4.0D-31, r^2= 3.7D+00
   Bfn.  Coefficient  Atom+Function         Bfn.  Coefficient  Atom+Function  
  ----- ------------  ---------------      ----- ------------  ---------------
    33      0.338467   4 C  s                 6      0.338467   1 C  s         
    42     -0.170035   5 C  s                15     -0.170035   2 C  s         
    51     -0.168433   6 C  s                24     -0.168433   3 C  s         
    21     -0.160947   3 C  px               48      0.160947   6 C  px        
    13     -0.160533   2 C  py               40      0.160533   5 C  py        
 
 Vector   12  Occ=2.000000D+00  E=-5.272458D-01  Symmetry=a1g
              MO Center= -9.0D-17,  2.9D-16,  1.5D-32, r^2= 4.2D+00
   Bfn.  Coefficient  Atom+Function         Bfn.  Coefficient  Atom+Function  
  ----- ------------  ---------------      ----- ------------  ---------------
    12     -0.167419   2 C  px               39      0.167419   5 C  px        
    22     -0.167419   3 C  py               49      0.167419   6 C  py        
 
 Vector   13  Occ=2.000000D+00  E=-4.627398D-01  Symmetry=b1u
              MO Center=  1.6D-15, -1.6D-15,  9.3D-32, r^2= 5.3D+00
   Bfn.  Coefficient  Atom+Function         Bfn.  Coefficient  Atom+Function  
  ----- ------------  ---------------      ----- ------------  ---------------
    24      0.267477   3 C  s                42     -0.267477   5 C  s         
    51     -0.267477   6 C  s                 6      0.267477   1 C  s         
    33     -0.267477   4 C  s                15      0.267477   2 C  s         
 
 Vector   14  Occ=2.000000D+00  E=-4.507899D-01  Symmetry=b2u
              MO Center= -2.6D-16, -2.2D-16,  4.8D-47, r^2= 2.7D+00
   Bfn.  Coefficient  Atom+Function         Bfn.  Coefficient  Atom+Function  
  ----- ------------  ---------------      ----- ------------  ---------------
    13     -0.239172   2 C  py               40     -0.239172   5 C  py        
    21      0.239172   3 C  px               48      0.239172   6 C  px        
    31      0.175086   4 C  py                4      0.175086   1 C  py        
    30     -0.175086   4 C  px                3     -0.175086   1 C  px        
 
 Vector   15  Occ=2.000000D+00  E=-4.258447D-01  Symmetry=e1u
              MO Center=  8.2D-16,  1.1D-15,  9.0D-18, r^2= 4.0D+00
   Bfn.  Coefficient  Atom+Function         Bfn.  Coefficient  Atom+Function  
  ----- ------------  ---------------      ----- ------------  ---------------
    30     -0.195722   4 C  px                3     -0.195722   1 C  px        
    22     -0.189375   3 C  py               49     -0.189375   6 C  py        
     4     -0.157996   1 C  py               31     -0.157996   4 C  py        
 
 Vector   16  Occ=2.000000D+00  E=-4.258447D-01  Symmetry=e1u
              MO Center=  5.4D-16,  4.3D-16, -1.8D-32, r^2= 4.0D+00
   Bfn.  Coefficient  Atom+Function         Bfn.  Coefficient  Atom+Function  
  ----- ------------  ---------------      ----- ------------  ---------------
    39     -0.258762   5 C  px               12     -0.258762   2 C  px        
    49      0.177606   6 C  py               22      0.177606   3 C  py        
    43     -0.171173   5 C  px               16     -0.171173   2 C  px        
    63     -0.152868  11 H  s                57      0.152868   8 H  s         
 
 Vector   17  Occ=2.000000D+00  E=-3.639418D-01  Symmetry=a2u
              MO Center= -6.8D-32,  5.6D-17, -1.5D-21, r^2= 2.8D+00
   Bfn.  Coefficient  Atom+Function         Bfn.  Coefficient  Atom+Function  
  ----- ------------  ---------------      ----- ------------  ---------------
    14     -0.192217   2 C  pz               32     -0.192217   4 C  pz        
    23     -0.192217   3 C  pz                5     -0.192217   1 C  pz        
    41     -0.192217   5 C  pz               50     -0.192217   6 C  pz        
    36     -0.168743   4 C  pz               54     -0.168743   6 C  pz        
    27     -0.168743   3 C  pz               45     -0.168743   5 C  pz        
 
 Vector   18  Occ=2.000000D+00  E=-3.466067D-01  Symmetry=e2g
              MO Center= -6.8D-16, -7.5D-16, -1.3D-32, r^2= 4.2D+00
   Bfn.  Coefficient  Atom+Function         Bfn.  Coefficient  Atom+Function  
  ----- ------------  ---------------      ----- ------------  ---------------
    21     -0.212142   3 C  px               48      0.212142   6 C  px        
    30      0.182688   4 C  px                3     -0.182688   1 C  px        
    39      0.181221   5 C  px               12     -0.181221   2 C  px        
    62     -0.152515  10 H  s                56     -0.152515   7 H  s         
    61     -0.152215  10 H  s                55     -0.152215   7 H  s         
 
 Vector   19  Occ=2.000000D+00  E=-3.466067D-01  Symmetry=e2g
              MO Center= -1.5D-16,  2.8D-17,  4.0D-32, r^2= 4.2D+00
   Bfn.  Coefficient  Atom+Function         Bfn.  Coefficient  Atom+Function  
  ----- ------------  ---------------      ----- ------------  ---------------
    40      0.202813   5 C  py               13     -0.202813   2 C  py        
    31      0.201346   4 C  py                4     -0.201346   1 C  py        
    49      0.171892   6 C  py               22     -0.171892   3 C  py        
    60      0.155994   9 H  s                66      0.155994  12 H  s         
    65      0.155687  12 H  s                59      0.155687   9 H  s         
 
 Vector   20  Occ=2.000000D+00  E=-2.501367D-01  Symmetry=e1g
              MO Center=  2.2D-16,  3.4D-31,  6.5D-17, r^2= 3.0D+00
   Bfn.  Coefficient  Atom+Function         Bfn.  Coefficient  Atom+Function  
  ----- ------------  ---------------      ----- ------------  ---------------
    45      0.300136   5 C  pz               18     -0.300136   2 C  pz        
    41      0.286582   5 C  pz               14     -0.286582   2 C  pz        
    27      0.200682   3 C  pz               54     -0.200682   6 C  pz        
    50     -0.191620   6 C  pz               23      0.191620   3 C  pz        
 
 Vector   21  Occ=2.000000D+00  E=-2.501367D-01  Symmetry=e1g
              MO Center= -3.5D-33,  1.1D-16,  6.2D-17, r^2= 3.0D+00
   Bfn.  Coefficient  Atom+Function         Bfn.  Coefficient  Atom+Function  
  ----- ------------  ---------------      ----- ------------  ---------------
     9      0.289147   1 C  pz               36     -0.289147   4 C  pz        
    32     -0.276090   4 C  pz                5      0.276090   1 C  pz        
    27     -0.230703   3 C  pz               54      0.230703   6 C  pz        
    50      0.220285   6 C  pz               23     -0.220285   3 C  pz        
 
 Vector   22  Occ=0.000000D+00  E= 3.850314D-03  Symmetry=e2u
              MO Center= -1.1D-16,  1.4D-16,  8.6D-17, r^2= 3.3D+00
   Bfn.  Coefficient  Atom+Function         Bfn.  Coefficient  Atom+Function  
  ----- ------------  ---------------      ----- ------------  ---------------
    18     -0.525295   2 C  pz               45     -0.525295   5 C  pz        
     9      0.352266   1 C  pz               36      0.352266   4 C  pz        
    41     -0.308299   5 C  pz               14     -0.308299   2 C  pz        
    32      0.206747   4 C  pz                5      0.206747   1 C  pz        
    54      0.173030   6 C  pz               27      0.173030   3 C  pz        
 
 Vector   23  Occ=0.000000D+00  E= 3.850314D-03  Symmetry=e2u
              MO Center=  5.6D-17,  1.7D-16,  5.0D-17, r^2= 3.3D+00
   Bfn.  Coefficient  Atom+Function         Bfn.  Coefficient  Atom+Function  
  ----- ------------  ---------------      ----- ------------  ---------------
    27      0.506660   3 C  pz               54      0.506660   6 C  pz        
     9     -0.403178   1 C  pz               36     -0.403178   4 C  pz        
    50      0.297362   6 C  pz               23      0.297362   3 C  pz        
    32     -0.236627   4 C  pz                5     -0.236627   1 C  pz        
 
 Vector   24  Occ=0.000000D+00  E= 1.075825D-01  Symmetry=a1g
              MO Center= -3.9D-16,  5.6D-17,  3.9D-33, r^2= 7.9D+00
   Bfn.  Coefficient  Atom+Function         Bfn.  Coefficient  Atom+Function  
  ----- ------------  ---------------      ----- ------------  ---------------
    58      0.704059   8 H  s                64      0.704059  11 H  s         
    66      0.704059  12 H  s                60      0.704059   9 H  s         
    62      0.704059  10 H  s                56      0.704059   7 H  s         
    42     -0.512066   5 C  s                51     -0.512066   6 C  s         
    15     -0.512066   2 C  s                24     -0.512066   3 C  s         
 
 Vector   25  Occ=0.000000D+00  E= 1.621727D-01  Symmetry=b2g
              MO Center= -2.2D-16, -5.6D-17,  2.1D-17, r^2= 3.5D+00
   Bfn.  Coefficient  Atom+Function         Bfn.  Coefficient  Atom+Function  
  ----- ------------  ---------------      ----- ------------  ---------------
    36      0.533344   4 C  pz               18     -0.533344   2 C  pz        
    27     -0.533344   3 C  pz               54      0.533344   6 C  pz        
    45      0.533344   5 C  pz                9     -0.533344   1 C  pz        
     5     -0.251890   1 C  pz               32      0.251890   4 C  pz        
    50      0.251890   6 C  pz               41      0.251890   5 C  pz        
 
 Vector   26  Occ=0.000000D+00  E= 1.650624D-01  Symmetry=e1u
              MO Center= -1.3D-15, -1.3D-15,  3.4D-30, r^2= 8.2D+00
   Bfn.  Coefficient  Atom+Function         Bfn.  Coefficient  Atom+Function  
  ----- ------------  ---------------      ----- ------------  ---------------
    62      1.121731  10 H  s                56     -1.121731   7 H  s         
    33     -0.739053   4 C  s                 6      0.739053   1 C  s         
    60      0.619511   9 H  s                66     -0.619511  12 H  s         
    58      0.502220   8 H  s                64     -0.502220  11 H  s         
    34      0.431917   4 C  px                7      0.431917   1 C  px        
 
 Vector   27  Occ=0.000000D+00  E= 1.650624D-01  Symmetry=e1u
              MO Center=  7.5D-14,  1.6D-15, -1.1D-17, r^2= 8.2D+00
   Bfn.  Coefficient  Atom+Function         Bfn.  Coefficient  Atom+Function  
  ----- ------------  ---------------      ----- ------------  ---------------
    64      1.005306  11 H  s                58     -1.005306   8 H  s         
    66     -0.937588  12 H  s                60      0.937588   9 H  s         
    42     -0.662347   5 C  s                15      0.662347   2 C  s         
    51      0.617731   6 C  s                24     -0.617731   3 C  s         
    43     -0.530715   5 C  px               16     -0.530715   2 C  px        
 
 Vector   28  Occ=0.000000D+00  E= 2.053488D-01  Symmetry=e2g
              MO Center= -1.9D-14, -3.5D-14,  0.0D+00, r^2= 7.9D+00
   Bfn.  Coefficient  Atom+Function         Bfn.  Coefficient  Atom+Function  
  ----- ------------  ---------------      ----- ------------  ---------------
    24      1.493322   3 C  s                51      1.493322   6 C  s         
    60     -1.062310   9 H  s                66     -1.062310  12 H  s         
    15     -1.012214   2 C  s                42     -1.012214   5 C  s         
    58      0.720062   8 H  s                64      0.720062  11 H  s         
    33     -0.481108   4 C  s                 6     -0.481108   1 C  s         
 
 Vector   29  Occ=0.000000D+00  E= 2.053488D-01  Symmetry=e2g
              MO Center= -5.7D-14,  3.1D-14,  2.5D-30, r^2= 7.9D+00
   Bfn.  Coefficient  Atom+Function         Bfn.  Coefficient  Atom+Function  
  ----- ------------  ---------------      ----- ------------  ---------------
     6      1.446572   1 C  s                33      1.446572   4 C  s         
    15     -1.139938   2 C  s                42     -1.139938   5 C  s         
    56     -1.029053   7 H  s                62     -1.029053  10 H  s         
    58      0.810921   8 H  s                64      0.810921  11 H  s         
    25      0.370812   3 C  px               52     -0.370812   6 C  px        
 
 Vector   30  Occ=0.000000D+00  E= 2.116516D-01  Symmetry=b1u
              MO Center=  1.2D-14,  7.8D-16, -8.4D-18, r^2= 8.9D+00
   Bfn.  Coefficient  Atom+Function         Bfn.  Coefficient  Atom+Function  
  ----- ------------  ---------------      ----- ------------  ---------------
    60      0.972746   9 H  s                66     -0.972746  12 H  s         
    64     -0.972746  11 H  s                56      0.972746   7 H  s         
    62     -0.972746  10 H  s                58      0.972746   8 H  s         
    43      0.721786   5 C  px               26      0.721786   3 C  py        
    53      0.721786   6 C  py               16      0.721786   2 C  px        
 
 Vector   31  Occ=0.000000D+00  E= 3.217240D-01  Symmetry=e2g
              MO Center= -1.7D-13,  1.1D-13,  5.0D-19, r^2= 4.8D+00
   Bfn.  Coefficient  Atom+Function         Bfn.  Coefficient  Atom+Function  
  ----- ------------  ---------------      ----- ------------  ---------------
    15      1.421092   2 C  s                42      1.421092   5 C  s         
    16      1.307345   2 C  px               43     -1.307345   5 C  px        
    51     -1.278652   6 C  s                24     -1.278652   3 C  s         
    53      1.213876   6 C  py               26     -1.213876   3 C  py        
    64      0.775984  11 H  s                58      0.775984   8 H  s         
 
 Vector   32  Occ=0.000000D+00  E= 3.217240D-01  Symmetry=e2g
              MO Center= -5.0D-15, -8.1D-15,  1.5D-31, r^2= 4.8D+00
   Bfn.  Coefficient  Atom+Function         Bfn.  Coefficient  Atom+Function  
  ----- ------------  ---------------      ----- ------------  ---------------
     6      1.558698   1 C  s                33      1.558698   4 C  s         
    34      1.033174   4 C  px                7     -1.033174   1 C  px        
    35      0.939594   4 C  py                8     -0.939594   1 C  py        
    51     -0.902706   6 C  s                24     -0.902706   3 C  s         
    62      0.851123  10 H  s                56      0.851123   7 H  s         
 
 Vector   33  Occ=0.000000D+00  E= 3.331762D-01  Symmetry=e1u
              MO Center= -1.2D-16, -5.8D-14,  1.3D-17, r^2= 4.6D+00
   Bfn.  Coefficient  Atom+Function         Bfn.  Coefficient  Atom+Function  
  ----- ------------  ---------------      ----- ------------  ---------------
    24      1.612549   3 C  s                51     -1.612549   6 C  s         
    44      1.573462   5 C  py               17      1.573462   2 C  py        
    33      1.037856   4 C  s                 6     -1.037856   1 C  s         
    35      1.026684   4 C  py                8      1.026684   1 C  py        
    34     -0.853204   4 C  px                7     -0.853204   1 C  px        
 
 Vector   34  Occ=0.000000D+00  E= 3.331762D-01  Symmetry=e1u
              MO Center=  1.7D-13, -3.1D-14,  2.7D-30, r^2= 4.6D+00
   Bfn.  Coefficient  Atom+Function         Bfn.  Coefficient  Atom+Function  
  ----- ------------  ---------------      ----- ------------  ---------------
    25      1.647779   3 C  px               52      1.647779   6 C  px        
    42     -1.530212   5 C  s                15      1.530212   2 C  s         
    33      1.262804   4 C  s                 6     -1.262804   1 C  s         
     7      0.878049   1 C  px               34      0.878049   4 C  px        
     8     -0.666968   1 C  py               35     -0.666968   4 C  py        
 
 Vector   35  Occ=0.000000D+00  E= 5.685785D-01  Symmetry=b1u
              MO Center=  6.9D-15, -2.3D-15, -1.1D-17, r^2= 3.8D+00
   Bfn.  Coefficient  Atom+Function         Bfn.  Coefficient  Atom+Function  
  ----- ------------  ---------------      ----- ------------  ---------------
     6      2.367605   1 C  s                33     -2.367605   4 C  s         
    42     -2.367605   5 C  s                15      2.367605   2 C  s         
    24      2.367605   3 C  s                51     -2.367605   6 C  s         
    26      1.856083   3 C  py               43      1.856083   5 C  px        
    53      1.856083   6 C  py               16      1.856083   2 C  px        
 

 center of mass
 --------------
 x =   0.00000000 y =   0.00000000 z =   0.00000000

 moments of inertia (a.u.)
 ------------------
         320.062201089014           0.000000000000           0.000000000000
           0.000000000000         320.062201089014           0.000000000000
           0.000000000000           0.000000000000         640.124402178028
 
     Multipole analysis of the density
     ---------------------------------
 
     L   x y z        total         alpha         beta         nuclear
     -   - - -        -----         -----         ----         -------
     0   0 0 0      0.000000    -21.000000    -21.000000     42.000000
 
     1   1 0 0      0.000000      0.000000      0.000000      0.000000
     1   0 1 0      0.000000      0.000000      0.000000      0.000000
     1   0 0 1      0.000000      0.000000      0.000000      0.000000
 
     2   2 0 0    -23.154083   -108.016459   -108.016459    192.878835
     2   1 1 0      0.000000      0.000000      0.000000      0.000000
     2   1 0 1      0.000000      0.000000      0.000000      0.000000
     2   0 2 0    -23.154083   -108.016459   -108.016459    192.878835
     2   0 1 1      0.000000      0.000000      0.000000      0.000000
     2   0 0 2    -29.714345    -14.857173    -14.857173      0.000000
 

 Parallel integral file used       4 records with       0 large values


 Task  times  cpu:        0.7s     wall:        1.1s
 
 
                                NWChem Input Module
                                -------------------
 
 
 
                                 NWChem DFT Module
                                 -----------------
 
 
                 total energy of benzene using various functionals
 
 
  Caching 1-el integrals 
 
            General Information
            -------------------
          SCF calculation type: DFT
          Wavefunction type:  closed shell.
          No. of atoms     :    12
          No. of electrons :    42
           Alpha electrons :    21
            Beta electrons :    21
          Charge           :     0
          Spin multiplicity:     1
          Use of symmetry is: on ; symmetry adaption is: on 
          Maximum number of iterations:  30
          AO basis - number of functions:    66
                     number of shells:    42
          Convergence on energy requested: 1.00D-06
          Convergence on density requested: 1.00D-05
          Convergence on gradient requested: 5.00D-04
 
              XC Information
              --------------
                         PBE0 Method XC Functional
                     Hartree-Fock (Exact) Exchange  0.250          
          PerdewBurkeErnzerhof Exchange Functional  0.750          
            Perdew 1991 LDA Correlation Functional  1.000 local    
           PerdewBurkeErnz. Correlation Functional  1.000 non-local
 
             Grid Information
             ----------------
          Grid used for XC integration:  medium    
          Radial quadrature: Mura-Knowles        
          Angular quadrature: Lebedev. 
          Tag              B.-S. Rad. Rad. Pts. Rad. Cut. Ang. Pts.
          ---              ---------- --------- --------- ---------
          C                   0.70       49          10.0       434
          H                   0.35       45          11.0       434
          Grid pruning is: on 
          Number of quadrature shells:    94
          Spatial weights used:  Erf1
 
          Convergence Information
          -----------------------
          Convergence aids based upon iterative change in 
          total energy or number of iterations. 
          Levelshifting, if invoked, occurs when the 
          HOMO/LUMO gap drops below (HL_TOL): 1.00D-02
          DIIS, if invoked, will attempt to extrapolate 
          using up to (NFOCK): 10 stored Fock matrices.

                    Damping( 0%)  Levelshifting(0.5)       DIIS
                  --------------- ------------------- ---------------
          dE  on:    start            ASAP                start   
          dE off:    2 iters         30 iters            30 iters 

 
      Screening Tolerance Information
      -------------------------------
          Density screening/tol_rho: 1.00D-10
          AO Gaussian exp screening on grid/accAOfunc:  14
          CD Gaussian exp screening on grid/accCDfunc:  20
          XC Gaussian exp screening on grid/accXCfunc:  20
          Schwarz screening/accCoul: 1.00D-08


 Loading old vectors from job with title :

total energy of benzene using various functionals

 
      Symmetry analysis of molecular orbitals - initial
      -------------------------------------------------
 
  Numbering of irreducible representations: 
 
     1 a1g         2 a1u         3 a2g         4 a2u         5 b1g     
     6 b1u         7 b2g         8 b2u         9 e1g        10 e1u     
    11 e2g        12 e2u     
 
  Orbital symmetries:
 
     1 b1u         2 e2g         3 e2g         4 e1u         5 e1u     
     6 a1g         7 a1g         8 e1u         9 e1u        10 e2g     
    11 e2g        12 a1g        13 b1u        14 b2u        15 e1u     
    16 e1u        17 a2u        18 e2g        19 e2g        20 e1g     
    21 e1g        22 e2u        23 e2u        24 a1g        25 b2g     
    26 e1u        27 e1u        28 e2g        29 e2g        30 b1u     
    31 e2g     
 
   Time after variat. SCF:      1.1
   Time prior to 1st pass:      1.1

 #quartets = 3.619D+04 #integrals = 1.410D+05 #direct =  0.0% #cached =100.0%


 Integral file          = ./c6h6.aoints.0
 Record size in doubles =  65536        No. of integs per rec  =  43688
 Max. records in memory =      3        Max. records in file   =   3197
 No. of bits per label  =      8        No. of bits per value  =     64


File balance: exchanges=     0  moved=     0  time=   0.0


 Grid_pts file          = ./c6h6.gridpts.0
 Record size in doubles =  12289        No. of grid_pts per rec  =   3070
 Max. records in memory =      5        Max. recs in file   =     17053


           Memory utilization after 1st SCF pass: 
           Heap Space remaining (MW):       12.85            12845578
          Stack Space remaining (MW):       13.11            13106547

   convergence    iter        energy       DeltaE   RMS-Dens  Diis-err    time
 ---------------- ----- ----------------- --------- --------- ---------  ------
 d= 0,ls=0.0,diis     1   -230.6893708140 -4.33D+02  3.35D-03  1.42D-02     1.3
 d= 0,ls=0.0,diis     2   -230.6911964541 -1.83D-03  5.28D-04  8.68D-04     1.4
 d= 0,ls=0.0,diis     3   -230.6912763355 -7.99D-05  2.45D-04  2.27D-04     1.5
 d= 0,ls=0.0,diis     4   -230.6913073995 -3.11D-05  3.10D-05  1.69D-06     1.6
 d= 0,ls=0.0,diis     5   -230.6913076737 -2.74D-07  1.70D-06  2.49D-09     1.6


         Total DFT energy =     -230.691307673707
      One electron energy =     -710.148967500954
           Coulomb energy =      311.350988830232
    Exchange-Corr. energy =      -34.333868557507
 Nuclear repulsion energy =      202.440539554522

 Numeric. integr. density =       41.999993813243

     Total iterative time =      0.5s


 
                       DFT Final Molecular Orbital Analysis
                       ------------------------------------
 
 Vector    6  Occ=2.000000D+00  E=-1.018048D+01  Symmetry=a1g
              MO Center= -2.5D-12, -3.9D-12, -2.5D-21, r^2= 2.0D+00
   Bfn.  Coefficient  Atom+Function         Bfn.  Coefficient  Atom+Function  
  ----- ------------  ---------------      ----- ------------  ---------------
    28     -0.402370   4 C  s                19     -0.402370   3 C  s         
    10     -0.402370   2 C  s                37     -0.402370   5 C  s         
    46     -0.402370   6 C  s                 1     -0.402370   1 C  s         
 
 Vector    7  Occ=2.000000D+00  E=-8.795873D-01  Symmetry=a1g
              MO Center= -1.9D-16, -1.4D-17, -2.4D-32, r^2= 2.1D+00
   Bfn.  Coefficient  Atom+Function         Bfn.  Coefficient  Atom+Function  
  ----- ------------  ---------------      ----- ------------  ---------------
     6      0.184278   1 C  s                15      0.184278   2 C  s         
    24      0.184278   3 C  s                33      0.184278   4 C  s         
    51      0.184278   6 C  s                42      0.184278   5 C  s         
 
 Vector    8  Occ=2.000000D+00  E=-7.687910D-01  Symmetry=e1u
              MO Center=  3.9D-16,  7.9D-17, -4.4D-33, r^2= 2.9D+00
   Bfn.  Coefficient  Atom+Function         Bfn.  Coefficient  Atom+Function  
  ----- ------------  ---------------      ----- ------------  ---------------
     6     -0.289240   1 C  s                33      0.289240   4 C  s         
    15      0.274850   2 C  s                42     -0.274850   5 C  s         
 
 Vector    9  Occ=2.000000D+00  E=-7.687910D-01  Symmetry=e1u
              MO Center=  7.4D-15,  8.7D-16,  1.2D-16, r^2= 2.9D+00
   Bfn.  Coefficient  Atom+Function         Bfn.  Coefficient  Atom+Function  
  ----- ------------  ---------------      ----- ------------  ---------------
    51      0.325677   6 C  s                24     -0.325677   3 C  s         
    42     -0.175301   5 C  s                15      0.175301   2 C  s         
     6      0.150376   1 C  s                33     -0.150376   4 C  s         
 
 Vector   10  Occ=2.000000D+00  E=-6.239309D-01  Symmetry=e2g
              MO Center= -7.9D-15, -8.0D-16,  4.6D-31, r^2= 3.7D+00
   Bfn.  Coefficient  Atom+Function         Bfn.  Coefficient  Atom+Function  
  ----- ------------  ---------------      ----- ------------  ---------------
    33      0.315549   4 C  s                 6      0.315549   1 C  s         
    15     -0.273201   2 C  s                42     -0.273201   5 C  s         
    21     -0.175993   3 C  px               48      0.175993   6 C  px        
 
 Vector   11  Occ=2.000000D+00  E=-6.239309D-01  Symmetry=e2g
              MO Center= -1.3D-15,  1.3D-15,  1.4D-17, r^2= 3.7D+00
   Bfn.  Coefficient  Atom+Function         Bfn.  Coefficient  Atom+Function  
  ----- ------------  ---------------      ----- ------------  ---------------
    51      0.339915   6 C  s                24      0.339915   3 C  s         
    15     -0.206632   2 C  s                42     -0.206632   5 C  s         
 
 Vector   12  Occ=2.000000D+00  E=-5.441819D-01  Symmetry=a1g
              MO Center=  4.2D-15, -6.8D-15, -7.7D-17, r^2= 4.2D+00
   Bfn.  Coefficient  Atom+Function         Bfn.  Coefficient  Atom+Function  
  ----- ------------  ---------------      ----- ------------  ---------------
    22      0.165091   3 C  py               49     -0.165091   6 C  py        
    39     -0.165091   5 C  px               12      0.165091   2 C  px        
 
 Vector   13  Occ=2.000000D+00  E=-4.770605D-01  Symmetry=b1u
              MO Center= -7.2D-16, -6.1D-16, -6.9D-20, r^2= 5.3D+00
   Bfn.  Coefficient  Atom+Function         Bfn.  Coefficient  Atom+Function  
  ----- ------------  ---------------      ----- ------------  ---------------
     6      0.259029   1 C  s                33     -0.259029   4 C  s         
    51     -0.259029   6 C  s                15      0.259029   2 C  s         
    42     -0.259029   5 C  s                24      0.259029   3 C  s         
 
 Vector   14  Occ=2.000000D+00  E=-4.662932D-01  Symmetry=b2u
              MO Center=  4.4D-16, -1.5D-15, -7.2D-32, r^2= 2.8D+00
   Bfn.  Coefficient  Atom+Function         Bfn.  Coefficient  Atom+Function  
  ----- ------------  ---------------      ----- ------------  ---------------
    13     -0.236182   2 C  py               40     -0.236182   5 C  py        
    21      0.236182   3 C  px               48      0.236182   6 C  px        
    31      0.172897   4 C  py                4      0.172897   1 C  py        
     3     -0.172897   1 C  px               30     -0.172897   4 C  px        
 
 Vector   15  Occ=2.000000D+00  E=-4.389556D-01  Symmetry=e1u
              MO Center= -8.3D-16,  6.1D-15,  2.7D-32, r^2= 4.0D+00
   Bfn.  Coefficient  Atom+Function         Bfn.  Coefficient  Atom+Function  
  ----- ------------  ---------------      ----- ------------  ---------------
    49     -0.251160   6 C  py               22     -0.251160   3 C  py        
    53     -0.183640   6 C  py               26     -0.183640   3 C  py        
     3     -0.154671   1 C  px               30     -0.154671   4 C  px        
    65     -0.151665  12 H  s                59      0.151665   9 H  s         
 
 Vector   16  Occ=2.000000D+00  E=-4.389556D-01  Symmetry=e1u
              MO Center= -4.0D-15,  2.9D-15, -8.2D-19, r^2= 4.0D+00
   Bfn.  Coefficient  Atom+Function         Bfn.  Coefficient  Atom+Function  
  ----- ------------  ---------------      ----- ------------  ---------------
    12     -0.229119   2 C  px               39     -0.229119   5 C  px        
    31     -0.179794   4 C  py                4     -0.179794   1 C  py        
    43     -0.170606   5 C  px               16     -0.170606   2 C  px        
 
 Vector   17  Occ=2.000000D+00  E=-3.796169D-01  Symmetry=a2u
              MO Center=  5.6D-17,  2.8D-17,  7.7D-17, r^2= 2.8D+00
   Bfn.  Coefficient  Atom+Function         Bfn.  Coefficient  Atom+Function  
  ----- ------------  ---------------      ----- ------------  ---------------
     5      0.189469   1 C  pz               14      0.189469   2 C  pz        
    23      0.189469   3 C  pz               32      0.189469   4 C  pz        
    41      0.189469   5 C  pz               50      0.189469   6 C  pz        
    27      0.170514   3 C  pz               36      0.170514   4 C  pz        
    18      0.170514   2 C  pz               45      0.170514   5 C  pz        
 
 Vector   18  Occ=2.000000D+00  E=-3.574705D-01  Symmetry=e2g
              MO Center=  2.7D-15, -3.3D-16,  1.2D-17, r^2= 4.2D+00
   Bfn.  Coefficient  Atom+Function         Bfn.  Coefficient  Atom+Function  
  ----- ------------  ---------------      ----- ------------  ---------------
     4      0.168382   1 C  py               31     -0.168382   4 C  py        
    30      0.161060   4 C  px                3     -0.161060   1 C  px        
    40     -0.160557   5 C  py               13      0.160557   2 C  py        
    48      0.151505   6 C  px               21     -0.151505   3 C  px        
 
 Vector   19  Occ=2.000000D+00  E=-3.574705D-01  Symmetry=e2g
              MO Center= -6.6D-17, -2.0D-15, -1.5D-32, r^2= 4.2D+00
   Bfn.  Coefficient  Atom+Function         Bfn.  Coefficient  Atom+Function  
  ----- ------------  ---------------      ----- ------------  ---------------
    21     -0.173898   3 C  px               48      0.173898   6 C  px        
    13     -0.165578   2 C  py               40      0.165578   5 C  py        
    61     -0.157756  10 H  s                55     -0.157756   7 H  s         
 
 Vector   20  Occ=2.000000D+00  E=-2.617455D-01  Symmetry=e1g
              MO Center=  5.6D-17,  5.6D-17, -7.6D-17, r^2= 3.0D+00
   Bfn.  Coefficient  Atom+Function         Bfn.  Coefficient  Atom+Function  
  ----- ------------  ---------------      ----- ------------  ---------------
    27     -0.283404   3 C  pz               54      0.283404   6 C  pz        
    23     -0.263178   3 C  pz               50      0.263178   6 C  pz        
    18      0.249625   2 C  pz               45     -0.249625   5 C  pz        
    41     -0.231810   5 C  pz               14      0.231810   2 C  pz        
 
 Vector   21  Occ=2.000000D+00  E=-2.617455D-01  Symmetry=e1g
              MO Center= -3.3D-16, -4.7D-16, -5.5D-18, r^2= 3.0D+00
   Bfn.  Coefficient  Atom+Function         Bfn.  Coefficient  Atom+Function  
  ----- ------------  ---------------      ----- ------------  ---------------
    36     -0.307745   4 C  pz                9      0.307745   1 C  pz        
    32     -0.285782   4 C  pz                5      0.285782   1 C  pz        
[...]
   Bfn.  Coefficient  Atom+Function         Bfn.  Coefficient  Atom+Function  
  ----- ------------  ---------------      ----- ------------  ---------------
    12     -0.166340   2 C  px               49      0.166340   6 C  py        
    39      0.166340   5 C  px               22     -0.166340   3 C  py        
 
 Vector   13  Occ=2.000000D+00  E=-4.095862D-01  Symmetry=b1u
              MO Center=  6.9D-17, -2.8D-17, -1.4D-32, r^2= 5.3D+00
   Bfn.  Coefficient  Atom+Function         Bfn.  Coefficient  Atom+Function  
  ----- ------------  ---------------      ----- ------------  ---------------
    15      0.285101   2 C  s                42     -0.285101   5 C  s         
    24      0.285101   3 C  s                51     -0.285101   6 C  s         
     6      0.285101   1 C  s                33     -0.285101   4 C  s         
 
 Vector   14  Occ=2.000000D+00  E=-4.012085D-01  Symmetry=b2u
              MO Center= -2.7D-16, -1.1D-15,  5.4D-31, r^2= 2.8D+00
   Bfn.  Coefficient  Atom+Function         Bfn.  Coefficient  Atom+Function  
  ----- ------------  ---------------      ----- ------------  ---------------
    21      0.237159   3 C  px               48      0.237159   6 C  px        
    13     -0.237159   2 C  py               40     -0.237159   5 C  py        
     3     -0.173613   1 C  px               30     -0.173613   4 C  px        
    31      0.173613   4 C  py                4      0.173613   1 C  py        
 
 Vector   15  Occ=2.000000D+00  E=-3.762279D-01  Symmetry=e1u
              MO Center=  7.6D-17,  4.9D-17, -9.0D-32, r^2= 4.0D+00
   Bfn.  Coefficient  Atom+Function         Bfn.  Coefficient  Atom+Function  
  ----- ------------  ---------------      ----- ------------  ---------------
    12      0.254543   2 C  px               39      0.254543   5 C  px        
    16      0.176094   2 C  px               43      0.176094   5 C  px        
     4      0.154826   1 C  py               31      0.154826   4 C  py        
    57     -0.152476   8 H  s                63      0.152476  11 H  s         
 
 Vector   16  Occ=2.000000D+00  E=-3.762279D-01  Symmetry=e1u
              MO Center= -8.2D-16, -2.7D-15,  5.7D-18, r^2= 4.0D+00
   Bfn.  Coefficient  Atom+Function         Bfn.  Coefficient  Atom+Function  
  ----- ------------  ---------------      ----- ------------  ---------------
    22     -0.230847   3 C  py               49     -0.230847   6 C  py        
    30     -0.182066   4 C  px                3     -0.182066   1 C  px        
    26     -0.163817   3 C  py               53     -0.163817   6 C  py        
 
 Vector   17  Occ=2.000000D+00  E=-3.239892D-01  Symmetry=a2u
              MO Center= -8.9D-16,  2.4D-15,  1.2D-17, r^2= 2.8D+00
   Bfn.  Coefficient  Atom+Function         Bfn.  Coefficient  Atom+Function  
  ----- ------------  ---------------      ----- ------------  ---------------
    50      0.192985   6 C  pz               32      0.192985   4 C  pz        
    14      0.192985   2 C  pz                5      0.192985   1 C  pz        
    23      0.192985   3 C  pz               41      0.192985   5 C  pz        
    54      0.168246   6 C  pz                9      0.168246   1 C  pz        
    18      0.168246   2 C  pz               27      0.168246   3 C  pz        
 
 Vector   18  Occ=2.000000D+00  E=-3.009715D-01  Symmetry=e2g
              MO Center= -1.2D-16,  2.4D-15,  2.5D-31, r^2= 4.2D+00
   Bfn.  Coefficient  Atom+Function         Bfn.  Coefficient  Atom+Function  
  ----- ------------  ---------------      ----- ------------  ---------------
     4     -0.196355   1 C  py               31      0.196355   4 C  py        
    40      0.196177   5 C  py               13     -0.196177   2 C  py        
    49      0.165477   6 C  py               22     -0.165477   3 C  py        
    66      0.157335  12 H  s                60      0.157335   9 H  s         
    65      0.154951  12 H  s                59      0.154951   9 H  s         
 
 Vector   19  Occ=2.000000D+00  E=-3.009715D-01  Symmetry=e2g
              MO Center=  1.1D-15,  1.2D-15,  7.5D-32, r^2= 4.2D+00
   Bfn.  Coefficient  Atom+Function         Bfn.  Coefficient  Atom+Function  
  ----- ------------  ---------------      ----- ------------  ---------------
    48      0.206530   6 C  px               21     -0.206530   3 C  px        
    39      0.175829   5 C  px               12     -0.175829   2 C  px        
     3     -0.175651   1 C  px               30      0.175651   4 C  px        
    56     -0.157758   7 H  s                62     -0.157758  10 H  s         
    55     -0.155368   7 H  s                61     -0.155368  10 H  s         
 
 Vector   20  Occ=2.000000D+00  E=-2.222262D-01  Symmetry=e1g
              MO Center= -6.1D-16, -8.0D-16, -2.1D-16, r^2= 3.0D+00
   Bfn.  Coefficient  Atom+Function         Bfn.  Coefficient  Atom+Function  
  ----- ------------  ---------------      ----- ------------  ---------------
    36      0.302634   4 C  pz                9     -0.302634   1 C  pz        
    32      0.294399   4 C  pz                5     -0.294399   1 C  pz        
    18      0.167390   2 C  pz               45     -0.167390   5 C  pz        
    14      0.162835   2 C  pz               41     -0.162835   5 C  pz        
 
 Vector   21  Occ=2.000000D+00  E=-2.222262D-01  Symmetry=e1g
              MO Center=  1.3D-15, -2.5D-15,  1.8D-16, r^2= 3.0D+00
   Bfn.  Coefficient  Atom+Function         Bfn.  Coefficient  Atom+Function  
  ----- ------------  ---------------      ----- ------------  ---------------
    27      0.271369   3 C  pz               54     -0.271369   6 C  pz        
    23      0.263984   3 C  pz               50     -0.263984   6 C  pz        
    45      0.252809   5 C  pz               18     -0.252809   2 C  pz        
    41      0.245930   5 C  pz               14     -0.245930   2 C  pz        
 
 Vector   22  Occ=0.000000D+00  E=-2.509315D-02  Symmetry=e2u
              MO Center= -4.4D-16,  2.2D-16, -2.4D-18, r^2= 3.3D+00
   Bfn.  Coefficient  Atom+Function         Bfn.  Coefficient  Atom+Function  
  ----- ------------  ---------------      ----- ------------  ---------------
    36     -0.523833   4 C  pz                9     -0.523833   1 C  pz        
     5     -0.322225   1 C  pz               32     -0.322225   4 C  pz        
    54      0.270302   6 C  pz               27      0.270302   3 C  pz        
    18      0.253531   2 C  pz               45      0.253531   5 C  pz        
    50      0.166271   6 C  pz               23      0.166271   3 C  pz        
 
 Vector   23  Occ=0.000000D+00  E=-2.509315D-02  Symmetry=e2u
              MO Center= -9.1D-34,  5.0D-16,  3.5D-18, r^2= 3.3D+00
   Bfn.  Coefficient  Atom+Function         Bfn.  Coefficient  Atom+Function  
  ----- ------------  ---------------      ----- ------------  ---------------
    45      0.458494   5 C  pz               18      0.458494   2 C  pz        
    54     -0.448811   6 C  pz               27     -0.448811   3 C  pz        
    41      0.282033   5 C  pz               14      0.282033   2 C  pz        
    50     -0.276077   6 C  pz               23     -0.276077   3 C  pz        
 
 Vector   24  Occ=0.000000D+00  E= 8.098278D-02  Symmetry=a1g
              MO Center=  1.6D-14, -2.7D-14, -3.5D-17, r^2= 7.9D+00
   Bfn.  Coefficient  Atom+Function         Bfn.  Coefficient  Atom+Function  
  ----- ------------  ---------------      ----- ------------  ---------------
    62     -0.695822  10 H  s                56     -0.695822   7 H  s         
    64     -0.695822  11 H  s                60     -0.695822   9 H  s         
    58     -0.695822   8 H  s                66     -0.695822  12 H  s         
    42      0.507001   5 C  s                15      0.507001   2 C  s         
    24      0.507001   3 C  s                51      0.507001   6 C  s         
 
 Vector   25  Occ=0.000000D+00  E= 1.192028D-01  Symmetry=b2g
              MO Center=  4.4D-16, -1.1D-16, -5.4D-18, r^2= 3.4D+00
   Bfn.  Coefficient  Atom+Function         Bfn.  Coefficient  Atom+Function  
  ----- ------------  ---------------      ----- ------------  ---------------
     9     -0.517103   1 C  pz               18     -0.517103   2 C  pz        
    54      0.517103   6 C  pz               45      0.517103   5 C  pz        
    27     -0.517103   3 C  pz               36      0.517103   4 C  pz        
    23     -0.259118   3 C  pz               41      0.259118   5 C  pz        
    32      0.259118   4 C  pz                5     -0.259118   1 C  pz        
 
 Vector   26  Occ=0.000000D+00  E= 1.374835D-01  Symmetry=e1u
              MO Center=  3.7D-15,  4.4D-15,  5.3D-18, r^2= 8.1D+00
   Bfn.  Coefficient  Atom+Function         Bfn.  Coefficient  Atom+Function  
  ----- ------------  ---------------      ----- ------------  ---------------
    56     -1.104178   7 H  s                62      1.104178  10 H  s         
     6      0.705428   1 C  s                33     -0.705428   4 C  s         
    66     -0.555823  12 H  s                60      0.555823   9 H  s         
    64     -0.548355  11 H  s                58      0.548355   8 H  s         
     7      0.426573   1 C  px               34      0.426573   4 C  px        
 
 Vector   27  Occ=0.000000D+00  E= 1.374835D-01  Symmetry=e1u
              MO Center= -2.1D-14,  2.2D-14, -2.0D-17, r^2= 8.1D+00
   Bfn.  Coefficient  Atom+Function         Bfn.  Coefficient  Atom+Function  
  ----- ------------  ---------------      ----- ------------  ---------------
    58     -0.958402   8 H  s                64      0.958402  11 H  s         
    66     -0.954090  12 H  s                60      0.954090   9 H  s         
    15      0.612296   2 C  s                42     -0.612296   5 C  s         
    51      0.609541   6 C  s                24     -0.609541   3 C  s         
    16     -0.506244   2 C  px               43     -0.506244   5 C  px        
 
 Vector   28  Occ=0.000000D+00  E= 1.763098D-01  Symmetry=e2g
              MO Center= -4.1D-13, -4.6D-13, -2.1D-19, r^2= 7.6D+00
   Bfn.  Coefficient  Atom+Function         Bfn.  Coefficient  Atom+Function  
  ----- ------------  ---------------      ----- ------------  ---------------
    33     -1.576854   4 C  s                 6     -1.576854   1 C  s         
    62      1.025894  10 H  s                56      1.025894   7 H  s         
    24      0.888124   3 C  s                51      0.888124   6 C  s         
    15      0.688730   2 C  s                42      0.688730   5 C  s         
    60     -0.577809   9 H  s                66     -0.577809  12 H  s         
 
 Vector   29  Occ=0.000000D+00  E= 1.763098D-01  Symmetry=e2g
              MO Center= -5.6D-16, -2.2D-16,  2.5D-31, r^2= 7.6D+00
   Bfn.  Coefficient  Atom+Function         Bfn.  Coefficient  Atom+Function  
  ----- ------------  ---------------      ----- ------------  ---------------
    42     -1.423156   5 C  s                15     -1.423156   2 C  s         
    51      1.308036   6 C  s                24      1.308036   3 C  s         
    64      0.925898  11 H  s                58      0.925898   8 H  s         
    66     -0.851002  12 H  s                60     -0.851002   9 H  s         
    34     -0.325961   4 C  px                7      0.325961   1 C  px        
 
 Vector   30  Occ=0.000000D+00  E= 1.842783D-01  Symmetry=b1u
              MO Center=  4.0D-13,  4.9D-13, -8.5D-18, r^2= 8.7D+00
   Bfn.  Coefficient  Atom+Function         Bfn.  Coefficient  Atom+Function  
  ----- ------------  ---------------      ----- ------------  ---------------
    56      0.935348   7 H  s                66     -0.935348  12 H  s         
    64     -0.935348  11 H  s                58      0.935348   8 H  s         
    60      0.935348   9 H  s                62     -0.935348  10 H  s         
    53      0.647162   6 C  py               43      0.647162   5 C  px        
    16      0.647162   2 C  px               26      0.647162   3 C  py        
 
 Vector   31  Occ=0.000000D+00  E= 2.848034D-01  Symmetry=e2g
              MO Center=  1.4D-14, -1.0D-14, -2.7D-31, r^2= 4.8D+00
   Bfn.  Coefficient  Atom+Function         Bfn.  Coefficient  Atom+Function  
  ----- ------------  ---------------      ----- ------------  ---------------
    15      1.376703   2 C  s                42      1.376703   5 C  s         
    43     -1.315704   5 C  px               16      1.315704   2 C  px        
    26     -1.171128   3 C  py               53      1.171128   6 C  py        
    51     -1.169114   6 C  s                24     -1.169114   3 C  s         
    64      0.818832  11 H  s                58      0.818832   8 H  s         
 
 Vector   32  Occ=0.000000D+00  E= 2.848034D-01  Symmetry=e2g
              MO Center= -8.0D-15, -8.2D-15, -8.3D-31, r^2= 4.8D+00
   Bfn.  Coefficient  Atom+Function         Bfn.  Coefficient  Atom+Function  
  ----- ------------  ---------------      ----- ------------  ---------------
     6      1.469828   1 C  s                33      1.469828   4 C  s         
    34      1.044494   4 C  px                7     -1.044494   1 C  px        
    51     -0.914692   6 C  s                24     -0.914692   3 C  s         
    35      0.906781   4 C  py                8     -0.906781   1 C  py        
    62      0.874221  10 H  s                56      0.874221   7 H  s         
 
 Vector   33  Occ=0.000000D+00  E= 2.950835D-01  Symmetry=e1u
              MO Center=  3.9D-15,  9.3D-16, -9.6D-18, r^2= 4.6D+00
   Bfn.  Coefficient  Atom+Function         Bfn.  Coefficient  Atom+Function  
  ----- ------------  ---------------      ----- ------------  ---------------
     6      1.628515   1 C  s                33     -1.628515   4 C  s         
    25     -1.422971   3 C  px               52     -1.422971   6 C  px        
    44     -1.368683   5 C  py               17     -1.368683   2 C  py        
    15     -0.858799   2 C  s                42      0.858799   5 C  s         
    51      0.769716   6 C  s                24     -0.769716   3 C  s         
 
 Vector   34  Occ=0.000000D+00  E= 2.950835D-01  Symmetry=e1u
              MO Center=  9.5D-15, -8.1D-15,  5.6D-17, r^2= 4.6D+00
   Bfn.  Coefficient  Atom+Function         Bfn.  Coefficient  Atom+Function  
  ----- ------------  ---------------      ----- ------------  ---------------
    24     -1.436052   3 C  s                51      1.436052   6 C  s         
    42     -1.384619   5 C  s                15      1.384619   2 C  s         
     8     -1.203510   1 C  py               35     -1.203510   4 C  py        
     7      1.195502   1 C  px               34      1.195502   4 C  px        
    44     -0.903552   5 C  py               17     -0.903552   2 C  py        
 
 Vector   35  Occ=0.000000D+00  E= 5.205660D-01  Symmetry=b1u
              MO Center= -2.1D-15,  2.1D-15,  1.2D-17, r^2= 3.9D+00
   Bfn.  Coefficient  Atom+Function         Bfn.  Coefficient  Atom+Function  
  ----- ------------  ---------------      ----- ------------  ---------------
     6     -2.313013   1 C  s                33      2.313013   4 C  s         
    51      2.313013   6 C  s                24     -2.313013   3 C  s         
    42      2.313013   5 C  s                15     -2.313013   2 C  s         
    43     -1.831155   5 C  px               26     -1.831155   3 C  py        
    53     -1.831155   6 C  py               16     -1.831155   2 C  px        
 

 center of mass
 --------------
 x =   0.00000000 y =   0.00000000 z =   0.00000000

 moments of inertia (a.u.)
 ------------------
         320.062201089014           0.000000000000           0.000000000000
           0.000000000000         320.062201089014           0.000000000000
           0.000000000000           0.000000000000         640.124402178028
 
     Multipole analysis of the density
     ---------------------------------
 
     L   x y z        total         alpha         beta         nuclear
     -   - - -        -----         -----         ----         -------
     0   0 0 0      0.000000    -21.000000    -21.000000     42.000000
 
     1   1 0 0      0.000000      0.000000      0.000000      0.000000
     1   0 1 0      0.000000      0.000000      0.000000      0.000000
     1   0 0 1      0.000000      0.000000      0.000000      0.000000
 
     2   2 0 0    -22.968119   -107.923477   -107.923477    192.878835
     2   1 1 0      0.000000      0.000000      0.000000      0.000000
     2   1 0 1      0.000000      0.000000      0.000000      0.000000
     2   0 2 0    -22.968119   -107.923477   -107.923477    192.878835
     2   0 1 1      0.000000      0.000000      0.000000      0.000000
     2   0 0 2    -29.740231    -14.870115    -14.870115      0.000000
 

 Parallel integral file used       4 records with       0 large values


 Task  times  cpu:        0.6s     wall:        0.9s
 
 
                                NWChem Input Module
                                -------------------
 
 
 Summary of allocated global arrays
-----------------------------------
  No active global arrays



                         GA Statistics for process    0
                         ------------------------------

       create   destroy   get      put      acc     scatter   gather  read&inc
calls:  570      570     3.26e+04 9755     3.06e+04    0        0        0     
number of processes/call 1.18e+00 1.14e+00 1.00e+00 0.00e+00 0.00e+00
bytes total:             4.06e+07 9.65e+06 7.53e+06 0.00e+00 0.00e+00 0.00e+00
bytes remote:            2.24e+07 4.15e+06 5.18e+06 0.00e+00 0.00e+00 0.00e+00
Max memory consumed for GA by this process: 454528 bytes
 
MA_summarize_allocated_blocks: starting scan ...
MA_summarize_allocated_blocks: scan completed: 0 heap blocks, 0 stack blocks
MA usage statistics:

	allocation statistics:
					      heap	     stack
					      ----	     -----
	current number of blocks	         0	         0
	maximum number of blocks	        24	        52
	current total bytes		         0	         0
	maximum total bytes		   2092984	  22514040
	maximum total K-bytes		      2093	     22515
	maximum total M-bytes		         3	        23
 
 
                                     CITATION
                                     --------
                Please cite the following reference when publishing
                           results obtained with NWChem:
 
                 M. Valiev, E.J. Bylaska, N. Govind, K. Kowalski,
              T.P. Straatsma, H.J.J. van Dam, D. Wang, J. Nieplocha,
                        E. Apra, T.L. Windus, W.A. de Jong
                 "NWChem: a comprehensive and scalable open-source
                  solution for large scale molecular simulations"
                      Comput. Phys. Commun. 181, 1477 (2010)
                           doi:10.1016/j.cpc.2010.04.018
 
                              AUTHORS & CONTRIBUTORS
                              ----------------------
      E. J. Bylaska, W. A. de Jong, N. Govind, K. Kowalski, T. P. Straatsma,
     M. Valiev, H. J. J. van Dam, D. Wang, E. Apra, T. L. Windus, J. Hammond,
     J. Autschbach, P. Nichols, S. Hirata, M. T. Hackler, Y. Zhao, P.-D. Fan,
      R. J. Harrison, M. Dupuis, D. M. A. Smith, K. Glaesemann, J. Nieplocha,
      V. Tipparaju, M. Krishnan, A. Vazquez-Mayagoitia, L. Jensen, M. Swart,
      Q. Wu, T. Van Voorhis, A. A. Auer, M. Nooijen, L. D. Crosby, E. Brown,
             G. Cisneros, G. I. Fann, H. Fruchtl, J. Garza, K. Hirao,
        R. Kendall, J. A. Nichols, K. Tsemekhman, K. Wolinski, J. Anchell,
       D. Bernholdt, P. Borowski, T. Clark, D. Clerc, H. Dachsel, M. Deegan,
        K. Dyall, D. Elwood, E. Glendening, M. Gutowski, A. Hess, J. Jaffe,
        B. Johnson, J. Ju, R. Kobayashi, R. Kutteh, Z. Lin, R. Littlefield,
    X. Long, B. Meng, T. Nakajima, S. Niu, L. Pollack, M. Rosing, G. Sandrone,
       M. Stave, H. Taylor, G. Thomas, J. H. van Lenthe, A. Wong, Z. Zhang.

 Total times  cpu:        2.2s     wall:        3.7s
