 argument  1 = mult.nw
 


============================== echo of input deck ==============================
echo

title "demonstrate the use of multiplicity"

start o2

geometry units angstrom
O        0.0000000000      0.0000000000      0.60066850000
O        0.0000000000      0.0000000000     -0.60066850000
symmetry c1
end

basis
 * library 6-31G*
end

# as triplet
dft
 xc b3lyp
 odft
 mult 3
 iterations 100
end
task dft energy

# as singlet
dft
 xc b3lyp
 odft
 mult 1
 iterations 100
end
task dft energy
================================================================================


                                         
                                         
 
 
              Northwest Computational Chemistry Package (NWChem) 6.0
              ------------------------------------------------------
 
 
                    Environmental Molecular Sciences Laboratory
                       Pacific Northwest National Laboratory
                                Richland, WA 99352
 
                              Copyright (c) 1994-2010
                       Pacific Northwest National Laboratory
                            Battelle Memorial Institute
 
             NWChem is an open-source computational chemistry package
                        distributed under the terms of the
                      Educational Community License (ECL) 2.0
             A copy of the license is included with this distribution
                              in the LICENSE.TXT file
 
                                  ACKNOWLEDGMENT
                                  --------------

            This software and its documentation were developed at the
            EMSL at Pacific Northwest National Laboratory, a multiprogram
            national laboratory, operated for the U.S. Department of Energy
            by Battelle under Contract Number DE-AC05-76RL01830. Support
            for this work was provided by the Department of Energy Office
            of Biological and Environmental Research, Office of Basic
            Energy Sciences, and the Office of Advanced Scientific Computing.


           Job information
           ---------------

    hostname      = curie
    program       = ../../../bin/LINUX64/nwchem
    date          = Mon Nov 15 17:08:43 2010

    compiled      = Mon_Nov_15_10:21:04_2010
    source        = /home/niri/nwchem/nwchem-6.0
    nwchem branch = 6.0
    input         = mult.nw
    prefix        = o2.
    data base     = ./o2.db
    status        = startup
    nproc         =        4
    time left     =     -1s



           Memory information
           ------------------

    heap     =   13107201 doubles =    100.0 Mbytes
    stack    =   13107201 doubles =    100.0 Mbytes
    global   =   26214400 doubles =    200.0 Mbytes (distinct from heap & stack)
    total    =   52428802 doubles =    400.0 Mbytes
    verify   = yes
    hardfail = no 


           Directory information
           ---------------------
 
  0 permanent = .
  0 scratch   = .
 
 
 
 
                                NWChem Input Module
                                -------------------
 
 
                        demonstrate the use of multiplicity
                        -----------------------------------

 Scaling coordinates for geometry "geometry" by  1.889725989
 (inverse scale =  0.529177249)

 Turning off AUTOSYM since
 SYMMETRY directive was detected!
 

          ------
          auto-z
          ------
 
 
                             Geometry "geometry" -> ""
                             -------------------------
 
 Output coordinates in angstroms (scale by  1.889725989 to convert to a.u.)
 
  No.       Tag          Charge          X              Y              Z
 ---- ---------------- ---------- -------------- -------------- --------------
    1 O                    8.0000     0.00000000     0.00000000     0.60066850
    2 O                    8.0000     0.00000000     0.00000000    -0.60066850
 
      Atomic Mass 
      ----------- 
 
      O                 15.994910
 

 Effective nuclear repulsion energy (a.u.)      28.1913767211

            Nuclear Dipole moment (a.u.) 
            ----------------------------
        X                 Y               Z
 ---------------- ---------------- ----------------
     0.0000000000     0.0000000000     0.0000000000
 


                                Z-matrix (autoz)
                                -------- 

 Units are Angstrom for bonds and degrees for angles
 
      Type          Name      I     J     K     L     M      Value
      ----------- --------  ----- ----- ----- ----- ----- ----------
    1 Stretch                  1     2                       1.20134
 
 
            XYZ format geometry
            -------------------
     2
 geometry
 O                     0.00000000     0.00000000     0.60066850
 O                     0.00000000     0.00000000    -0.60066850
 
 ==============================================================================
                                internuclear distances
 ------------------------------------------------------------------------------
       center one      |      center two      | atomic units |  angstroms
 ------------------------------------------------------------------------------
    2 O                |   1 O                |     2.27020  |     1.20134
 ------------------------------------------------------------------------------
                         number of included internuclear distances:          1
 ==============================================================================



  library name resolved from: environment
  library file name is: </home/niri/nwchem/nwchem-6.0/src/basis/libraries/>
  


 Summary of "ao basis" -> "" (cartesian)
 ------------------------------------------------------------------------------
       Tag                 Description            Shells   Functions and Types
 ---------------- ------------------------------  ------  ---------------------
 *                           6-31G*                   on all atoms 


 
                                 NWChem DFT Module
                                 -----------------
 
 
                        demonstrate the use of multiplicity
 
 
                      Basis "ao basis" -> "ao basis" (cartesian)
                      -----
  O (Oxygen)
  ----------
            Exponent  Coefficients 
       -------------- ---------------------------------------------------------
  1 S  5.48467170E+03  0.001831
  1 S  8.25234950E+02  0.013950
  1 S  1.88046960E+02  0.068445
  1 S  5.29645000E+01  0.232714
  1 S  1.68975700E+01  0.470193
  1 S  5.79963530E+00  0.358521
 
  2 S  1.55396160E+01 -0.110778
  2 S  3.59993360E+00 -0.148026
  2 S  1.01376180E+00  1.130767
 
  3 P  1.55396160E+01  0.070874
  3 P  3.59993360E+00  0.339753
  3 P  1.01376180E+00  0.727159
 
  4 S  2.70005800E-01  1.000000
 
  5 P  2.70005800E-01  1.000000
 
  6 D  8.00000000E-01  1.000000
 


 Summary of "ao basis" -> "ao basis" (cartesian)
 ------------------------------------------------------------------------------
       Tag                 Description            Shells   Functions and Types
 ---------------- ------------------------------  ------  ---------------------
 O                           6-31G*                  6       15   3s2p1d


  Caching 1-el integrals 
 
            General Information
            -------------------
          SCF calculation type: DFT
          Wavefunction type:  spin polarized.
          No. of atoms     :     2
          No. of electrons :    16
           Alpha electrons :     9
            Beta electrons :     7
          Charge           :     0
          Spin multiplicity:     3
          Use of symmetry is: off; symmetry adaption is: off
          Maximum number of iterations: 100
          AO basis - number of functions:    30
                     number of shells:    12
          Convergence on energy requested: 1.00D-06
          Convergence on density requested: 1.00D-05
          Convergence on gradient requested: 5.00D-04
 
              XC Information
              --------------
                         B3LYP Method XC Potential
                     Hartree-Fock (Exact) Exchange  0.200          
                        Slater Exchange Functional  0.800 local    
                    Becke 1988 Exchange Functional  0.720 non-local
              Lee-Yang-Parr Correlation Functional  0.810          
                  VWN I RPA Correlation Functional  0.190 local    
 
             Grid Information
             ----------------
          Grid used for XC integration:  medium    
          Radial quadrature: Mura-Knowles        
          Angular quadrature: Lebedev. 
          Tag              B.-S. Rad. Rad. Pts. Rad. Cut. Ang. Pts.
          ---              ---------- --------- --------- ---------
          O                   0.60       49           5.0       434
          Grid pruning is: on 
          Number of quadrature shells:    98
          Spatial weights used:  Erf1
 
          Convergence Information
          -----------------------
          Convergence aids based upon iterative change in 
          total energy or number of iterations. 
          Levelshifting, if invoked, occurs when the 
          HOMO/LUMO gap drops below (HL_TOL): 1.00D-02
          DIIS, if invoked, will attempt to extrapolate 
          using up to (NFOCK): 10 stored Fock matrices.

                    Damping( 0%)  Levelshifting(0.5)       DIIS
                  --------------- ------------------- ---------------
          dE  on:    start            ASAP                start   
          dE off:    2 iters        100 iters           100 iters 

 
      Screening Tolerance Information
      -------------------------------
          Density screening/tol_rho: 1.00D-10
          AO Gaussian exp screening on grid/accAOfunc:  14
          CD Gaussian exp screening on grid/accCDfunc:  20
          XC Gaussian exp screening on grid/accXCfunc:  20
          Schwarz screening/accCoul: 1.00D-08

 
      Superposition of Atomic Density Guess
      -------------------------------------
 
 Sum of atomic energies:        -149.50870446
 
      Non-variational initial energy
      ------------------------------

 Total energy =    -149.607443
 1-e energy   =    -262.346255
 2-e energy   =      84.547434
 HOMO         =      -0.189646
 LUMO         =      -0.189646
 
   Time after variat. SCF:      0.1
   Time prior to 1st pass:      0.1

 #quartets = 3.074D+03 #integrals = 3.360D+04 #direct =  0.0% #cached =100.0%


 Integral file          = ./o2.aoints.0
 Record size in doubles =  65536        No. of integs per rec  =  43688
 Max. records in memory =      2        Max. records in file   =   3200
 No. of bits per label  =      8        No. of bits per value  =     64


File balance: exchanges=     0  moved=     0  time=   0.0


 Grid_pts file          = ./o2.gridpts.0
 Record size in doubles =  12289        No. of grid_pts per rec  =   3070
 Max. records in memory =      5        Max. recs in file   =     17073


           Memory utilization after 1st SCF pass: 
           Heap Space remaining (MW):       12.91            12912933
          Stack Space remaining (MW):       13.11            13106847

   convergence    iter        energy       DeltaE   RMS-Dens  Diis-err    time
 ---------------- ----- ----------------- --------- --------- ---------  ------
 d= 0,ls=0.0,diis     1   -150.2746419731 -1.78D+02  1.28D-02  1.72D-01     0.2
                                                     7.29D-03  8.15D-02
 d= 0,ls=0.0,diis     2   -150.3016077013 -2.70D-02  4.47D-03  4.81D-02     0.3
                                                     3.84D-03  4.72D-02
 d= 0,ls=0.0,diis     3   -150.3194745143 -1.79D-02  8.08D-04  1.12D-03     0.3
                                                     1.87D-04  2.35D-04
 d= 0,ls=0.0,diis     4   -150.3197649779 -2.90D-04  6.76D-05  9.80D-06     0.4
                                                     1.13D-04  2.41D-05
 d= 0,ls=0.0,diis     5   -150.3197727046 -7.73D-06  2.98D-05  9.23D-07     0.5
                                                     2.02D-05  4.15D-07
 d= 0,ls=0.0,diis     6   -150.3197730950 -3.90D-07  7.51D-07  7.66D-10     0.5
                                                     7.68D-07  6.65D-10


         Total DFT energy =     -150.319773095015
      One electron energy =     -262.087928991857
           Coulomb energy =      100.606369505664
    Exchange-Corr. energy =      -17.029590329909
 Nuclear repulsion energy =       28.191376721087

 Numeric. integr. density =       16.000000051224

     Total iterative time =      0.5s


 
                    DFT Final Alpha Molecular Orbital Analysis
                    ------------------------------------------
 
 Vector    1  Occ=1.000000D+00  E=-1.931081D+01
              MO Center=  3.6D-18, -4.9D-18, -1.1D-09, r^2= 3.8D-01
   Bfn.  Coefficient  Atom+Function         Bfn.  Coefficient  Atom+Function  
  ----- ------------  ---------------      ----- ------------  ---------------
    16     -0.702057  2 O  s                  1     -0.702057  1 O  s          
 
 Vector    2  Occ=1.000000D+00  E=-1.931062D+01
              MO Center=  1.3D-17, -6.4D-18,  1.1D-09, r^2= 3.8D-01
   Bfn.  Coefficient  Atom+Function         Bfn.  Coefficient  Atom+Function  
  ----- ------------  ---------------      ----- ------------  ---------------
     1     -0.701873  1 O  s                 16      0.701873  2 O  s          
 
 Vector    3  Occ=1.000000D+00  E=-1.312383D+00
              MO Center=  4.3D-18, -8.3D-17, -1.2D-13, r^2= 4.7D-01
   Bfn.  Coefficient  Atom+Function         Bfn.  Coefficient  Atom+Function  
  ----- ------------  ---------------      ----- ------------  ---------------
    17     -0.363379  2 O  s                  2     -0.363379  1 O  s          
    21     -0.218333  2 O  s                  6     -0.218333  1 O  s          
     5      0.180701  1 O  pz                20     -0.180701  2 O  pz         
    16      0.153159  2 O  s                  1      0.153159  1 O  s          
 
 Vector    4  Occ=1.000000D+00  E=-8.338446D-01
              MO Center= -1.1D-16, -1.1D-17, -2.0D-13, r^2= 1.1D+00
   Bfn.  Coefficient  Atom+Function         Bfn.  Coefficient  Atom+Function  
  ----- ------------  ---------------      ----- ------------  ---------------
    21      0.475573  2 O  s                  6     -0.475573  1 O  s          
    17      0.396859  2 O  s                  2     -0.396859  1 O  s          
     1      0.166792  1 O  s                 16     -0.166792  2 O  s          
 
 Vector    5  Occ=1.000000D+00  E=-5.638098D-01
              MO Center=  1.2D-14,  8.4D-16, -3.7D-13, r^2= 8.1D-01
   Bfn.  Coefficient  Atom+Function         Bfn.  Coefficient  Atom+Function  
  ----- ------------  ---------------      ----- ------------  ---------------
    18     -0.475411  2 O  px                 3     -0.475411  1 O  px         
    22     -0.249748  2 O  px                 7     -0.249748  1 O  px         
 
 Vector    6  Occ=1.000000D+00  E=-5.638098D-01
              MO Center=  4.1D-16, -4.7D-15, -3.6D-13, r^2= 8.1D-01
   Bfn.  Coefficient  Atom+Function         Bfn.  Coefficient  Atom+Function  
  ----- ------------  ---------------      ----- ------------  ---------------
    19      0.475411  2 O  py                 4      0.475411  1 O  py         
    23      0.249748  2 O  py                 8      0.249748  1 O  py         
 
 Vector    7  Occ=1.000000D+00  E=-5.492901D-01
              MO Center= -1.2D-14,  4.1D-15,  2.5D-13, r^2= 1.1D+00
   Bfn.  Coefficient  Atom+Function         Bfn.  Coefficient  Atom+Function  
  ----- ------------  ---------------      ----- ------------  ---------------
    20      0.472047  2 O  pz                 5     -0.472047  1 O  pz         
     6     -0.285070  1 O  s                 21     -0.285070  2 O  s          
    24      0.218244  2 O  pz                 9     -0.218244  1 O  pz         
 
 Vector    8  Occ=1.000000D+00  E=-3.038803D-01
              MO Center=  1.3D-16,  2.1D-16,  3.6D-13, r^2= 9.2D-01
   Bfn.  Coefficient  Atom+Function         Bfn.  Coefficient  Atom+Function  
  ----- ------------  ---------------      ----- ------------  ---------------
     4      0.438423  1 O  py                19     -0.438423  2 O  py         
     3      0.324976  1 O  px                18     -0.324976  2 O  px         
     8      0.305450  1 O  py                23     -0.305450  2 O  py         
     7      0.226412  1 O  px                22     -0.226412  2 O  px         
 
 Vector    9  Occ=1.000000D+00  E=-3.038803D-01
              MO Center= -2.3D-17, -1.7D-17,  3.5D-13, r^2= 9.2D-01
   Bfn.  Coefficient  Atom+Function         Bfn.  Coefficient  Atom+Function  
  ----- ------------  ---------------      ----- ------------  ---------------
     3      0.438423  1 O  px                18     -0.438423  2 O  px         
     4     -0.324976  1 O  py                19      0.324976  2 O  py         
     7      0.305450  1 O  px                22     -0.305450  2 O  px         
     8     -0.226412  1 O  py                23      0.226412  2 O  py         
 
 Vector   10  Occ=0.000000D+00  E= 2.137255D-01
              MO Center= -4.1D-17,  4.2D-17,  6.2D-14, r^2= 1.2D+00
   Bfn.  Coefficient  Atom+Function         Bfn.  Coefficient  Atom+Function  
  ----- ------------  ---------------      ----- ------------  ---------------
     6      1.092721  1 O  s                 21     -1.092721  2 O  s          
     9     -1.034992  1 O  pz                24     -1.034992  2 O  pz         
     5     -0.522236  1 O  pz                20     -0.522236  2 O  pz         
    17     -0.247063  2 O  s                  2      0.247063  1 O  s          
 
 Vector   11  Occ=0.000000D+00  E= 6.693763D-01
              MO Center= -4.3D-15, -1.7D-15, -1.5D-12, r^2= 1.8D+00
   Bfn.  Coefficient  Atom+Function         Bfn.  Coefficient  Atom+Function  
  ----- ------------  ---------------      ----- ------------  ---------------
     6     -1.392980  1 O  s                 21     -1.392980  2 O  s          
    17      0.918068  2 O  s                  2      0.918068  1 O  s          
    30      0.351177  2 O  dzz               15      0.351177  1 O  dzz        
    25      0.261283  2 O  dxx               28      0.261283  2 O  dyy        
    10      0.261283  1 O  dxx               13      0.261283  1 O  dyy        
 
 Vector   12  Occ=0.000000D+00  E= 7.096442D-01
              MO Center=  7.6D-17, -9.6D-18,  7.6D-13, r^2= 2.5D+00
   Bfn.  Coefficient  Atom+Function         Bfn.  Coefficient  Atom+Function  
  ----- ------------  ---------------      ----- ------------  ---------------
    24      1.443248  2 O  pz                 9      1.443248  1 O  pz         
    21      0.638990  2 O  s                  6     -0.638990  1 O  s          
    20     -0.542090  2 O  pz                 5     -0.542090  1 O  pz         
    15     -0.371300  1 O  dzz               30      0.371300  2 O  dzz        
     2     -0.273441  1 O  s                 17      0.273441  2 O  s          
 
 Vector   13  Occ=0.000000D+00  E= 7.759878D-01
              MO Center=  4.9D-15, -1.5D-15, -6.5D-13, r^2= 1.5D+00
   Bfn.  Coefficient  Atom+Function         Bfn.  Coefficient  Atom+Function  
  ----- ------------  ---------------      ----- ------------  ---------------
    18     -0.615540  2 O  px                 3     -0.615540  1 O  px         
    22      0.607327  2 O  px                 7      0.607327  1 O  px         
    19      0.200712  2 O  py                 4      0.200712  1 O  py         
    23     -0.198034  2 O  py                 8     -0.198034  1 O  py         
 
 Vector   14  Occ=0.000000D+00  E= 7.759878D-01
              MO Center=  1.3D-15,  3.4D-15, -6.7D-13, r^2= 1.5D+00
   Bfn.  Coefficient  Atom+Function         Bfn.  Coefficient  Atom+Function  
  ----- ------------  ---------------      ----- ------------  ---------------
    19     -0.615540  2 O  py                 4     -0.615540  1 O  py         
    23      0.607327  2 O  py                 8      0.607327  1 O  py         
    18     -0.200712  2 O  px                 3     -0.200712  1 O  px         
    22      0.198034  2 O  px                 7      0.198034  1 O  px         
 
 Vector   15  Occ=0.000000D+00  E= 8.516538D-01
              MO Center= -9.7D-16,  6.9D-16,  6.8D-13, r^2= 2.0D+00
   Bfn.  Coefficient  Atom+Function         Bfn.  Coefficient  Atom+Function  
  ----- ------------  ---------------      ----- ------------  ---------------
     9     -0.801401  1 O  pz                24      0.801401  2 O  pz         
     5      0.531390  1 O  pz                20     -0.531390  2 O  pz         
    30     -0.168437  2 O  dzz               15     -0.168437  1 O  dzz        
 
 Vector   16  Occ=0.000000D+00  E= 8.959227D-01
              MO Center=  1.4D-15,  1.3D-15,  6.6D-13, r^2= 1.9D+00
   Bfn.  Coefficient  Atom+Function         Bfn.  Coefficient  Atom+Function  
  ----- ------------  ---------------      ----- ------------  ---------------
     8     -0.771039  1 O  py                23      0.771039  2 O  py         
     7     -0.755789  1 O  px                22      0.755789  2 O  px         
     4      0.445554  1 O  py                19     -0.445554  2 O  py         
     3      0.436742  1 O  px                18     -0.436742  2 O  px         
 
 Vector   17  Occ=0.000000D+00  E= 8.959227D-01
              MO Center= -6.0D-18,  1.7D-16,  6.5D-13, r^2= 1.9D+00
   Bfn.  Coefficient  Atom+Function         Bfn.  Coefficient  Atom+Function  
  ----- ------------  ---------------      ----- ------------  ---------------
     7      0.771039  1 O  px                22     -0.771039  2 O  px         
     8     -0.755789  1 O  py                23      0.755789  2 O  py         
     3     -0.445554  1 O  px                18      0.445554  2 O  px         
     4      0.436742  1 O  py                19     -0.436742  2 O  py         
 
 Vector   18  Occ=0.000000D+00  E= 1.279705D+00
              MO Center= -1.8D-15, -1.8D-15,  7.2D-16, r^2= 1.9D+00
   Bfn.  Coefficient  Atom+Function         Bfn.  Coefficient  Atom+Function  
  ----- ------------  ---------------      ----- ------------  ---------------
    21     -4.982711  2 O  s                  6      4.982711  1 O  s          
     9     -2.399611  1 O  pz                24     -2.399611  2 O  pz         
    17      1.273291  2 O  s                  2     -1.273291  1 O  s          
    13     -0.331096  1 O  dyy               10     -0.331096  1 O  dxx        
    25      0.331096  2 O  dxx               28      0.331096  2 O  dyy        
 
 Vector   19  Occ=0.000000D+00  E= 1.492892D+00
              MO Center=  4.0D-16,  3.7D-16, -4.8D-14, r^2= 9.4D-01
   Bfn.  Coefficient  Atom+Function         Bfn.  Coefficient  Atom+Function  
  ----- ------------  ---------------      ----- ------------  ---------------
    29      1.043935  2 O  dyz               14     -1.043935  1 O  dyz        
     4     -0.155541  1 O  py                19     -0.155541  2 O  py         
 
 
                     DFT Final Beta Molecular Orbital Analysis
                     -----------------------------------------
 
 Vector    1  Occ=1.000000D+00  E=-1.928147D+01
              MO Center= -1.1D-18,  1.4D-18, -6.5D-10, r^2= 3.8D-01
   Bfn.  Coefficient  Atom+Function         Bfn.  Coefficient  Atom+Function  
  ----- ------------  ---------------      ----- ------------  ---------------
    16      0.702396  2 O  s                  1      0.702396  1 O  s          
 
 Vector    2  Occ=1.000000D+00  E=-1.928115D+01
              MO Center= -7.7D-19,  2.0D-19,  6.5D-10, r^2= 3.8D-01
   Bfn.  Coefficient  Atom+Function         Bfn.  Coefficient  Atom+Function  
  ----- ------------  ---------------      ----- ------------  ---------------
     1      0.702253  1 O  s                 16     -0.702253  2 O  s          
 
 Vector    3  Occ=1.000000D+00  E=-1.255018D+00
              MO Center= -3.3D-18, -6.1D-17, -8.9D-14, r^2= 4.5D-01
   Bfn.  Coefficient  Atom+Function         Bfn.  Coefficient  Atom+Function  
  ----- ------------  ---------------      ----- ------------  ---------------
    17      0.341636  2 O  s                  2      0.341636  1 O  s          
    21      0.222394  2 O  s                  6      0.222394  1 O  s          
    20      0.192262  2 O  pz                 5     -0.192262  1 O  pz         
 
 Vector    4  Occ=1.000000D+00  E=-7.452729D-01
              MO Center= -6.1D-17, -1.8D-16, -3.0D-13, r^2= 1.1D+00
   Bfn.  Coefficient  Atom+Function         Bfn.  Coefficient  Atom+Function  
  ----- ------------  ---------------      ----- ------------  ---------------
    21     -0.482345  2 O  s                  6      0.482345  1 O  s          
    17     -0.377423  2 O  s                  2      0.377423  1 O  s          
    16      0.163174  2 O  s                  1     -0.163174  1 O  s          
 
 Vector    5  Occ=1.000000D+00  E=-5.091883D-01
              MO Center= -3.5D-16, -3.8D-17,  3.3D-13, r^2= 1.2D+00
   Bfn.  Coefficient  Atom+Function         Bfn.  Coefficient  Atom+Function  
  ----- ------------  ---------------      ----- ------------  ---------------
    20     -0.461961  2 O  pz                 5      0.461961  1 O  pz         
     6      0.309293  1 O  s                 21      0.309293  2 O  s          
     9      0.222938  1 O  pz                24     -0.222938  2 O  pz         
 
 Vector    6  Occ=1.000000D+00  E=-4.616756D-01
              MO Center=  1.6D-16, -4.0D-16, -2.0D-13, r^2= 8.5D-01
   Bfn.  Coefficient  Atom+Function         Bfn.  Coefficient  Atom+Function  
  ----- ------------  ---------------      ----- ------------  ---------------
    19     -0.321626  2 O  py                 4     -0.321626  1 O  py         
    18      0.306237  2 O  px                 3      0.306237  1 O  px         
    23     -0.201497  2 O  py                 8     -0.201497  1 O  py         
    22      0.191856  2 O  px                 7      0.191856  1 O  px         
 
 Vector    7  Occ=1.000000D+00  E=-4.616756D-01
              MO Center=  4.5D-16,  1.7D-16, -2.0D-13, r^2= 8.5D-01
   Bfn.  Coefficient  Atom+Function         Bfn.  Coefficient  Atom+Function  
  ----- ------------  ---------------      ----- ------------  ---------------
    18     -0.321626  2 O  px                 3     -0.321626  1 O  px         
    19     -0.306237  2 O  py                 4     -0.306237  1 O  py         
    22     -0.201497  2 O  px                 7     -0.201497  1 O  px         
    23     -0.191856  2 O  py                 8     -0.191856  1 O  py         
 
 Vector    8  Occ=0.000000D+00  E=-1.082199D-01
              MO Center=  1.1D-16,  8.8D-17,  1.9D-13, r^2= 1.0D+00
   Bfn.  Coefficient  Atom+Function         Bfn.  Coefficient  Atom+Function  
  ----- ------------  ---------------      ----- ------------  ---------------
     4      0.483644  1 O  py                19     -0.483644  2 O  py         
     8      0.414428  1 O  py                23     -0.414428  2 O  py         
     3      0.165233  1 O  px                18     -0.165233  2 O  px         
 
 Vector    9  Occ=0.000000D+00  E=-1.082199D-01
              MO Center=  5.4D-17, -7.9D-17,  2.0D-13, r^2= 1.0D+00
   Bfn.  Coefficient  Atom+Function         Bfn.  Coefficient  Atom+Function  
  ----- ------------  ---------------      ----- ------------  ---------------
     3      0.483644  1 O  px                18     -0.483644  2 O  px         
     7      0.414428  1 O  px                22     -0.414428  2 O  px         
     4     -0.165233  1 O  py                19      0.165233  2 O  py         
 
 Vector   10  Occ=0.000000D+00  E= 2.579549D-01
              MO Center= -2.2D-17, -7.6D-17,  5.3D-14, r^2= 1.2D+00
   Bfn.  Coefficient  Atom+Function         Bfn.  Coefficient  Atom+Function  
  ----- ------------  ---------------      ----- ------------  ---------------
     6      1.198234  1 O  s                 21     -1.198234  2 O  s          
     9     -1.103703  1 O  pz                24     -1.103703  2 O  pz         
     5     -0.504443  1 O  pz                20     -0.504443  2 O  pz         
    17     -0.247032  2 O  s                  2      0.247032  1 O  s          
 
 Vector   11  Occ=0.000000D+00  E= 6.879718D-01
              MO Center= -1.5D-15, -3.8D-15, -1.1D-12, r^2= 1.7D+00
   Bfn.  Coefficient  Atom+Function         Bfn.  Coefficient  Atom+Function  
  ----- ------------  ---------------      ----- ------------  ---------------
     6      1.388575  1 O  s                 21      1.388575  2 O  s          
    17     -0.918594  2 O  s                  2     -0.918594  1 O  s          
    30     -0.367595  2 O  dzz               15     -0.367595  1 O  dzz        
    28     -0.263733  2 O  dyy               25     -0.263733  2 O  dxx        
    13     -0.263733  1 O  dyy               10     -0.263733  1 O  dxx        
 
 Vector   12  Occ=0.000000D+00  E= 7.277243D-01
              MO Center= -4.7D-16, -2.1D-17,  3.2D-13, r^2= 2.5D+00
   Bfn.  Coefficient  Atom+Function         Bfn.  Coefficient  Atom+Function  
  ----- ------------  ---------------      ----- ------------  ---------------
    24      1.451545  2 O  pz                 9      1.451545  1 O  pz         
    21      0.673890  2 O  s                  6     -0.673890  1 O  s          
    20     -0.552767  2 O  pz                 5     -0.552767  1 O  pz         
    15     -0.378145  1 O  dzz               30      0.378145  2 O  dzz        
     2     -0.256353  1 O  s                 17      0.256353  2 O  s          
 
 Vector   13  Occ=0.000000D+00  E= 8.312038D-01
              MO Center=  3.3D-15,  2.8D-15, -6.2D-13, r^2= 1.5D+00
   Bfn.  Coefficient  Atom+Function         Bfn.  Coefficient  Atom+Function  
  ----- ------------  ---------------      ----- ------------  ---------------
    18      0.510598  2 O  px                 3      0.510598  1 O  px         
    22     -0.481239  2 O  px                 7     -0.481239  1 O  px         
    19      0.426850  2 O  py                 4      0.426850  1 O  py         
    23     -0.402306  2 O  py                 8     -0.402306  1 O  py         
 
 Vector   14  Occ=0.000000D+00  E= 8.312038D-01
              MO Center= -1.3D-15,  1.7D-15, -6.2D-13, r^2= 1.5D+00
   Bfn.  Coefficient  Atom+Function         Bfn.  Coefficient  Atom+Function  
  ----- ------------  ---------------      ----- ------------  ---------------
    19      0.510598  2 O  py                 4      0.510598  1 O  py         
    23     -0.481239  2 O  py                 8     -0.481239  1 O  py         
    18     -0.426850  2 O  px                 3     -0.426850  1 O  px         
    22      0.402306  2 O  px                 7      0.402306  1 O  px         
 
 Vector   15  Occ=0.000000D+00  E= 8.636546D-01
              MO Center=  1.7D-16,  8.4D-17,  7.6D-13, r^2= 2.0D+00
   Bfn.  Coefficient  Atom+Function         Bfn.  Coefficient  Atom+Function  
  ----- ------------  ---------------      ----- ------------  ---------------
     9     -0.801385  1 O  pz                24      0.801385  2 O  pz         
     5      0.543660  1 O  pz                20     -0.543660  2 O  pz         
    21     -0.204493  2 O  s                  6     -0.204493  1 O  s          
 
 Vector   16  Occ=0.000000D+00  E= 9.540625D-01
              MO Center=  6.3D-17, -4.7D-16,  6.2D-13, r^2= 1.9D+00
   Bfn.  Coefficient  Atom+Function         Bfn.  Coefficient  Atom+Function  
  ----- ------------  ---------------      ----- ------------  ---------------
     8      1.056546  1 O  py                23     -1.056546  2 O  py         
     4     -0.650471  1 O  py                19      0.650471  2 O  py         
 
 Vector   17  Occ=0.000000D+00  E= 9.540625D-01
              MO Center=  2.2D-15,  1.8D-16,  6.2D-13, r^2= 1.9D+00
   Bfn.  Coefficient  Atom+Function         Bfn.  Coefficient  Atom+Function  
  ----- ------------  ---------------      ----- ------------  ---------------
     7     -1.056546  1 O  px                22      1.056546  2 O  px         
     3      0.650471  1 O  px                18     -0.650471  2 O  px         
 
 Vector   18  Occ=0.000000D+00  E= 1.307555D+00
              MO Center= -1.7D-15,  6.0D-16,  1.8D-14, r^2= 1.9D+00
   Bfn.  Coefficient  Atom+Function         Bfn.  Coefficient  Atom+Function  
  ----- ------------  ---------------      ----- ------------  ---------------
     6     -4.984945  1 O  s                 21      4.984945  2 O  s          
     9      2.377101  1 O  pz                24      2.377101  2 O  pz         
    17     -1.280931  2 O  s                  2      1.280931  1 O  s          
    13      0.340264  1 O  dyy               25     -0.340264  2 O  dxx        
    10      0.340264  1 O  dxx               28     -0.340264  2 O  dyy        
 
 Vector   19  Occ=0.000000D+00  E= 1.526622D+00
              MO Center= -7.0D-16, -5.1D-16, -3.9D-14, r^2= 9.4D-01
   Bfn.  Coefficient  Atom+Function         Bfn.  Coefficient  Atom+Function  
  ----- ------------  ---------------      ----- ------------  ---------------
    27     -0.856701  2 O  dxz               12      0.856701  1 O  dxz        
    29     -0.596150  2 O  dyz               14      0.596150  1 O  dyz        
 

   alpha - beta orbital overlaps 
   ----------------------------- 


   alpha      1      2      3      4      5      6      7      8      9     10
    beta      1      2      3      4      7      6      5      8      9     10
 overlap   1.000  1.000  0.999  0.999  0.767  0.767  0.999  0.951  0.951  0.999


   alpha     11     12     13     14     15     16     17     18     19     20
    beta     11     12     14     13     15     17     16     18     20     19
 overlap   0.998  1.000  0.847  0.847  0.999  0.753  0.753  1.000  0.860  0.860


   alpha     21     22     23     24     25     26     27     28     29     30
    beta     21     22     23     24     25     26     27     28     29     30
 overlap   1.000  1.000  1.000  1.000  1.000  0.990  0.990  1.000  1.000  1.000


     --------------------------
     Expectation value of S2:  
     --------------------------
      <S2> =      2.0065 (Exact =     2.0000)
 

 center of mass
 --------------
 x =   0.00000000 y =   0.00000000 z =   0.00000000

 moments of inertia (a.u.)
 ------------------
          41.217266175299           0.000000000000           0.000000000000
           0.000000000000          41.217266175299           0.000000000000
           0.000000000000           0.000000000000           0.000000000000
 
     Multipole analysis of the density
     ---------------------------------
 
     L   x y z        total         alpha         beta         nuclear
     -   - - -        -----         -----         ----         -------
     0   0 0 0      0.000000     -9.000000     -7.000000     16.000000
 
     1   1 0 0      0.000000      0.000000      0.000000      0.000000
     1   0 1 0      0.000000      0.000000      0.000000      0.000000
     1   0 0 1      0.000000      0.000000      0.000000      0.000000
 
     2   2 0 0     -7.273102     -4.214406     -3.058695      0.000000
     2   1 1 0      0.000000      0.000000      0.000000      0.000000
     2   1 0 1      0.000000      0.000000      0.000000      0.000000
     2   0 2 0     -7.273102     -4.214406     -3.058695      0.000000
     2   0 1 1      0.000000      0.000000      0.000000      0.000000
     2   0 0 2     -7.646833    -16.010991    -12.251033     20.615191
 

 Parallel integral file used       4 records with       0 large values


 Task  times  cpu:        0.5s     wall:        1.0s
 
 
                                NWChem Input Module
                                -------------------
 
 
 
                                 NWChem DFT Module
                                 -----------------
 
 
                        demonstrate the use of multiplicity
 
 
  Caching 1-el integrals 
 
            General Information
            -------------------
          SCF calculation type: DFT
          Wavefunction type:  spin polarized.
          No. of atoms     :     2
          No. of electrons :    16
           Alpha electrons :     8
            Beta electrons :     8
          Charge           :     0
          Spin multiplicity:     1
          Use of symmetry is: off; symmetry adaption is: off
          Maximum number of iterations: 100
          AO basis - number of functions:    30
                     number of shells:    12
          Convergence on energy requested: 1.00D-06
          Convergence on density requested: 1.00D-05
          Convergence on gradient requested: 5.00D-04
 
              XC Information
              --------------
                         B3LYP Method XC Potential
                     Hartree-Fock (Exact) Exchange  0.200          
                        Slater Exchange Functional  0.800 local    
                    Becke 1988 Exchange Functional  0.720 non-local
              Lee-Yang-Parr Correlation Functional  0.810          
                  VWN I RPA Correlation Functional  0.190 local    
 
             Grid Information
             ----------------
          Grid used for XC integration:  medium    
          Radial quadrature: Mura-Knowles        
          Angular quadrature: Lebedev. 
          Tag              B.-S. Rad. Rad. Pts. Rad. Cut. Ang. Pts.
          ---              ---------- --------- --------- ---------
          O                   0.60       49           5.0       434
          Grid pruning is: on 
          Number of quadrature shells:    98
          Spatial weights used:  Erf1
 
          Convergence Information
          -----------------------
          Convergence aids based upon iterative change in 
          total energy or number of iterations. 
          Levelshifting, if invoked, occurs when the 
          HOMO/LUMO gap drops below (HL_TOL): 1.00D-02
          DIIS, if invoked, will attempt to extrapolate 
          using up to (NFOCK): 10 stored Fock matrices.

                    Damping( 0%)  Levelshifting(0.5)       DIIS
                  --------------- ------------------- ---------------
          dE  on:    start            ASAP                start   
          dE off:    2 iters        100 iters           100 iters 

 
      Screening Tolerance Information
      -------------------------------
          Density screening/tol_rho: 1.00D-10
          AO Gaussian exp screening on grid/accAOfunc:  14
          CD Gaussian exp screening on grid/accCDfunc:  20
          XC Gaussian exp screening on grid/accXCfunc:  20
          Schwarz screening/accCoul: 1.00D-08


 Loading old vectors from job with title :

demonstrate the use of multiplicity

   Time after variat. SCF:      0.6
   Time prior to 1st pass:      0.6

 #quartets = 3.074D+03 #integrals = 3.360D+04 #direct =  0.0% #cached =100.0%


 Integral file          = ./o2.aoints.0
 Record size in doubles =  65536        No. of integs per rec  =  43688
 Max. records in memory =      2        Max. records in file   =   3200
 No. of bits per label  =      8        No. of bits per value  =     64


File balance: exchanges=     0  moved=     0  time=   0.0


 Grid_pts file          = ./o2.gridpts.0
 Record size in doubles =  12289        No. of grid_pts per rec  =   3070
 Max. records in memory =      5        Max. recs in file   =     17073


           Memory utilization after 1st SCF pass: 
           Heap Space remaining (MW):       12.91            12912933
          Stack Space remaining (MW):       13.11            13106847

   convergence    iter        energy       DeltaE   RMS-Dens  Diis-err    time
 ---------------- ----- ----------------- --------- --------- ---------  ------
 d= 0,ls=0.5,diis     1   -150.2547969729 -1.78D+02  1.52D-03  6.66D-03     0.7
                                                     2.74D-03  1.34D-02
 d= 0,ls=0.5,diis     2   -150.2615091284 -6.71D-03  1.51D-03  2.07D-03     0.7
                                                     1.33D-03  1.33D-03
 d= 0,ls=0.5,diis     3   -150.2640690267 -2.56D-03  1.21D-03  6.18D-04     0.8
                                                     1.30D-03  9.79D-04
 d= 0,ls=0.5,diis     4   -150.2662341606 -2.17D-03  9.98D-04  6.99D-04     0.9
                                                     1.02D-03  7.30D-04
 d= 0,ls=0.5,diis     5   -150.2680425003 -1.81D-03  3.34D-04  8.20D-04     0.9
                                                     3.35D-04  8.19D-04
 d= 0,ls=0.5,diis     6   -150.2685102415 -4.68D-04  1.82D-03  9.71D-04     1.0
                                                     1.82D-03  9.65D-04
 d= 0,ls=0.5,diis     7   -150.2648788580  3.63D-03  2.06D-03  1.57D-03     1.1
                                                     2.07D-03  1.56D-03
 d= 0,ls=0.5,diis     8   -150.2615473182  3.33D-03  1.53D-03  1.57D-03     1.1
                                                     1.53D-03  1.57D-03
 d= 0,ls=0.5,diis     9   -150.2598391890  1.71D-03  6.95D-04  1.06D-03     1.2
                                                     6.90D-04  1.06D-03
 d= 0,ls=0.5,diis    10   -150.2594360093  4.03D-04  5.71D-04  5.53D-04     1.3
                                                     5.73D-04  5.52D-04
 d= 0,ls=0.5,diis    11   -150.2589755216  4.60D-04  6.61D-04  3.99D-04     1.3
                                                     6.65D-04  3.99D-04
 d= 0,ls=0.5,diis    12   -150.2584432577  5.32D-04  5.47D-04  3.27D-04     1.4
                                                     5.50D-04  3.27D-04
 d= 0,ls=0.5,diis    13   -150.2580848369  3.58D-04  3.79D-04  2.43D-04     1.4
                                                     3.81D-04  2.42D-04
 d= 0,ls=0.5,diis    14   -150.2578834728  2.01D-04  3.65D-04  1.71D-04     1.5
                                                     3.67D-04  1.70D-04
 d= 0,ls=0.5,diis    15   -150.2576961119  1.87D-04  3.53D-04  1.33D-04     1.6
                                                     3.55D-04  1.32D-04
 d= 0,ls=0.5,diis    16   -150.2575362456  1.60D-04  2.96D-04  1.04D-04     1.6
                                                     2.97D-04  1.04D-04
 d= 0,ls=0.5,diis    17   -150.2574247217  1.12D-04  2.42D-04  7.72D-05     1.7
                                                     2.43D-04  7.71D-05
 d= 0,ls=0.5,diis    18   -150.2573467922  7.79D-05  2.04D-04  5.67D-05     1.8
                                                     2.05D-04  5.67D-05
 d= 0,ls=0.5,diis    19   -150.2572890061  5.78D-05  1.82D-04  4.23D-05     1.8
                                                     1.83D-04  4.23D-05
 d= 0,ls=0.5,diis    20   -150.2572433081  4.57D-05  1.61D-04  3.23D-05     1.9
                                                     1.62D-04  3.22D-05
 d= 0,ls=0.5,diis    21   -150.2572081367  3.52D-05  1.32D-04  2.45D-05     2.0
                                                     1.33D-04  2.45D-05
 d= 0,ls=0.5,diis    22   -150.2571835618  2.46D-05  1.16D-04  1.83D-05     2.0
                                                     1.17D-04  1.82D-05
 d= 0,ls=0.5,diis    23   -150.2571644483  1.91D-05  9.99D-05  1.39D-05     2.1
                                                     1.00D-04  1.39D-05
 d= 0,ls=0.5,diis    24   -150.2571500635  1.44D-05  8.76D-05  1.06D-05     2.2
                                                     8.81D-05  1.06D-05
 d= 0,ls=0.5,diis    25   -150.2571389546  1.11D-05  7.67D-05  8.09D-06     2.2
                                                     7.71D-05  8.08D-06
 d= 0,ls=0.5,diis    26   -150.2571304302  8.52D-06  6.71D-05  6.20D-06     2.3
                                                     6.75D-05  6.19D-06
 d= 0,ls=0.5,diis    27   -150.2571238998  6.53D-06  5.87D-05  4.75D-06     2.4
                                                     5.91D-05  4.74D-06
 d= 0,ls=0.5,diis    28   -150.2571188958  5.00D-06  5.13D-05  3.64D-06     2.4
                                                     5.16D-05  3.63D-06
 d= 0,ls=0.5,diis    29   -150.2571150713  3.82D-06  4.49D-05  2.78D-06     2.5
                                                     4.51D-05  2.78D-06
 d= 0,ls=0.5,diis    30   -150.2571121435  2.93D-06  3.93D-05  2.13D-06     2.6
                                                     3.95D-05  2.13D-06
 d= 0,ls=0.5,diis    31   -150.2571098961  2.25D-06  3.44D-05  1.64D-06     2.6
                                                     3.46D-05  1.63D-06
 d= 0,ls=0.5,diis    32   -150.2571081728  1.72D-06  3.02D-05  1.25D-06     2.7
                                                     3.04D-05  1.25D-06
 d= 0,ls=0.5,diis    33   -150.2571068485  1.32D-06  2.64D-05  9.62D-07     2.8
                                                     2.66D-05  9.61D-07
 d= 0,ls=0.5,diis    34   -150.2571058351  1.01D-06  2.31D-05  7.37D-07     2.8
                                                     2.32D-05  7.36D-07
 d= 0,ls=0.5,diis    35   -150.2571050590  7.76D-07  2.02D-05  5.65D-07     2.9
                                                     2.03D-05  5.64D-07
 d= 0,ls=0.5,diis    36   -150.2571044658  5.93D-07  1.77D-05  4.33D-07     2.9
                                                     1.78D-05  4.32D-07
 d= 0,ls=0.5,diis    37   -150.2571040107  4.55D-07  1.55D-05  3.32D-07     3.0
                                                     1.56D-05  3.31D-07
 d= 0,ls=0.5,diis    38   -150.2571036608  3.50D-07  1.36D-05  2.55D-07     3.1
                                                     1.37D-05  2.54D-07
 d= 0,ls=0.5,diis    39   -150.2571033925  2.68D-07  1.19D-05  1.95D-07     3.1
                                                     1.20D-05  1.95D-07
 d= 0,ls=0.5,diis    40   -150.2571031868  2.06D-07  1.04D-05  1.50D-07     3.2
                                                     1.05D-05  1.49D-07
  Singularity in Pulay matrix. Error and Fock matrices removed. 
  Singularity in Pulay matrix. Error and Fock matrices removed. 
  Singularity in Pulay matrix. Error and Fock matrices removed. 
 d= 0,ls=0.5,diis    41   -150.2571030292  1.58D-07  9.11D-06  1.15D-07     3.3
                                                     9.18D-06  1.14D-07


         Total DFT energy =     -150.257102908365
      One electron energy =     -262.010904487508
           Coulomb energy =      100.560311181381
    Exchange-Corr. energy =      -16.997886323325
 Nuclear repulsion energy =       28.191376721087

 Numeric. integr. density =       16.000000046053

     Total iterative time =      2.8s


 
                    DFT Final Alpha Molecular Orbital Analysis
                    ------------------------------------------
 
 Vector    1  Occ=1.000000D+00  E=-1.930582D+01
              MO Center= -9.6D-15,  5.0D-15,  4.7D-04, r^2= 3.8D-01
   Bfn.  Coefficient  Atom+Function         Bfn.  Coefficient  Atom+Function  
  ----- ------------  ---------------      ----- ------------  ---------------
     1     -0.702515  1 O  s                 16     -0.701960  2 O  s          
 
 Vector    2  Occ=1.000000D+00  E=-1.930556D+01
              MO Center= -9.4D-15,  5.0D-15, -4.7D-04, r^2= 3.8D-01
   Bfn.  Coefficient  Atom+Function         Bfn.  Coefficient  Atom+Function  
  ----- ------------  ---------------      ----- ------------  ---------------
    16     -0.702353  2 O  s                  1      0.701797  1 O  s          
 
 Vector    3  Occ=1.000000D+00  E=-1.288762D+00
              MO Center= -5.6D-12,  2.9D-12,  8.0D-08, r^2= 4.6D-01
   Bfn.  Coefficient  Atom+Function         Bfn.  Coefficient  Atom+Function  
  ----- ------------  ---------------      ----- ------------  ---------------
     2     -0.353233  1 O  s                 17     -0.353233  2 O  s          
     6     -0.219639  1 O  s                 21     -0.219639  2 O  s          
    20     -0.186968  2 O  pz                 5      0.186968  1 O  pz         
     1      0.151441  1 O  s                 16      0.151441  2 O  s          
 
 Vector    4  Occ=1.000000D+00  E=-7.936973D-01
              MO Center= -3.1D-12,  1.6D-12,  2.4D-07, r^2= 1.1D+00
   Bfn.  Coefficient  Atom+Function         Bfn.  Coefficient  Atom+Function  
  ----- ------------  ---------------      ----- ------------  ---------------
     6     -0.479726  1 O  s                 21      0.479726  2 O  s          
     2     -0.388379  1 O  s                 17      0.388379  2 O  s          
     1      0.165186  1 O  s                 16     -0.165186  2 O  s          
 
 Vector    5  Occ=1.000000D+00  E=-5.333907D-01
              MO Center= -3.9D-11,  2.0D-11, -2.8D-07, r^2= 1.1D+00
   Bfn.  Coefficient  Atom+Function         Bfn.  Coefficient  Atom+Function  
  ----- ------------  ---------------      ----- ------------  ---------------
    20     -0.467727  2 O  pz                 5      0.467727  1 O  pz         
    21      0.296196  2 O  s                  6      0.296195  1 O  s          
     9      0.219481  1 O  pz                24     -0.219481  2 O  pz         
 
 Vector    6  Occ=1.000000D+00  E=-5.206495D-01
              MO Center=  4.2D-11, -2.2D-11,  7.2D-08, r^2= 8.3D-01
   Bfn.  Coefficient  Atom+Function         Bfn.  Coefficient  Atom+Function  
  ----- ------------  ---------------      ----- ------------  ---------------
     3      0.405230  1 O  px                18      0.405230  2 O  px         
     7      0.235608  1 O  px                22      0.235608  2 O  px         
    19     -0.212855  2 O  py                 4     -0.212855  1 O  py         
 
 Vector    7  Occ=1.000000D+00  E=-5.124338D-01
              MO Center= -8.2D-13,  4.7D-13,  2.6D-07, r^2= 8.2D-01
   Bfn.  Coefficient  Atom+Function         Bfn.  Coefficient  Atom+Function  
  ----- ------------  ---------------      ----- ------------  ---------------
     4      0.412308  1 O  py                19      0.412308  2 O  py         
     8      0.230150  1 O  py                23      0.230150  2 O  py         
     3      0.216573  1 O  px                18      0.216573  2 O  px         
 
 Vector    8  Occ=1.000000D+00  E=-2.454173D-01
              MO Center= -7.0D-13,  3.9D-13, -2.6D-07, r^2= 9.4D-01
   Bfn.  Coefficient  Atom+Function         Bfn.  Coefficient  Atom+Function  
  ----- ------------  ---------------      ----- ------------  ---------------
    19      0.473603  2 O  py                 4     -0.473603  1 O  py         
    23      0.351907  2 O  py                 8     -0.351907  1 O  py         
    18      0.249672  2 O  px                 3     -0.249672  1 O  px         
    22      0.185560  2 O  px                 7     -0.185560  1 O  px         
 
 Vector    9  Occ=0.000000D+00  E=-1.743350D-01
              MO Center=  7.9D-13, -4.2D-13, -6.2D-08, r^2= 9.7D-01
   Bfn.  Coefficient  Atom+Function         Bfn.  Coefficient  Atom+Function  
  ----- ------------  ---------------      ----- ------------  ---------------
    18     -0.464603  2 O  px                 3      0.464603  1 O  px         
    22     -0.367102  2 O  px                 7      0.367102  1 O  px         
     4     -0.244963  1 O  py                19      0.244963  2 O  py         
     8     -0.193512  1 O  py                23      0.193512  2 O  py         
 
 Vector   10  Occ=0.000000D+00  E= 2.312275D-01
              MO Center= -6.1D-13,  3.2D-13, -2.0D-08, r^2= 1.2D+00
   Bfn.  Coefficient  Atom+Function         Bfn.  Coefficient  Atom+Function  
  ----- ------------  ---------------      ----- ------------  ---------------
    21      1.135764  2 O  s                  6     -1.135764  1 O  s          
    24      1.060540  2 O  pz                 9      1.060540  1 O  pz         
    20      0.516347  2 O  pz                 5      0.516346  1 O  pz         
     2     -0.247080  1 O  s                 17      0.247080  2 O  s          
 
 Vector   11  Occ=0.000000D+00  E= 6.766562D-01
              MO Center= -5.5D-11,  2.9D-11,  1.1D-06, r^2= 1.8D+00
   Bfn.  Coefficient  Atom+Function         Bfn.  Coefficient  Atom+Function  
  ----- ------------  ---------------      ----- ------------  ---------------
    21     -1.390744  2 O  s                  6     -1.390743  1 O  s          
     2      0.918572  1 O  s                 17      0.918571  2 O  s          
    15      0.359077  1 O  dzz               30      0.359076  2 O  dzz        
    13      0.264624  1 O  dyy               28      0.264624  2 O  dyy        
    10      0.259406  1 O  dxx               25      0.259406  2 O  dxx        
 
 Vector   12  Occ=0.000000D+00  E= 7.161769D-01
              MO Center= -6.9D-12,  3.6D-12, -5.4D-07, r^2= 2.5D+00
   Bfn.  Coefficient  Atom+Function         Bfn.  Coefficient  Atom+Function  
  ----- ------------  ---------------      ----- ------------  ---------------
     9      1.451862  1 O  pz                24      1.451862  2 O  pz         
     6     -0.661659  1 O  s                 21      0.661656  2 O  s          
     5     -0.545626  1 O  pz                20     -0.545626  2 O  pz         
    30      0.373618  2 O  dzz               15     -0.373617  1 O  dzz        
    17      0.265538  2 O  s                  2     -0.265537  1 O  s          
 
 Vector   13  Occ=0.000000D+00  E= 7.911207D-01
              MO Center=  5.4D-11, -2.8D-11,  5.1D-07, r^2= 1.5D+00
   Bfn.  Coefficient  Atom+Function         Bfn.  Coefficient  Atom+Function  
  ----- ------------  ---------------      ----- ------------  ---------------
     3     -0.582559  1 O  px                18     -0.582559  2 O  px         
     7      0.559862  1 O  px                22      0.559861  2 O  px         
     4      0.305999  1 O  py                19      0.305999  2 O  py         
     8     -0.294077  1 O  py                23     -0.294077  2 O  py         
 
 Vector   14  Occ=0.000000D+00  E= 8.086812D-01
              MO Center= -3.1D-13,  1.7D-13,  5.3D-07, r^2= 1.5D+00
   Bfn.  Coefficient  Atom+Function         Bfn.  Coefficient  Atom+Function  
  ----- ------------  ---------------      ----- ------------  ---------------
     4     -0.578794  1 O  py                19     -0.578794  2 O  py         
     8      0.562151  1 O  py                23      0.562150  2 O  py         
     3     -0.304022  1 O  px                18     -0.304022  2 O  px         
     7      0.295280  1 O  px                22      0.295279  2 O  px         
 
 Vector   15  Occ=0.000000D+00  E= 8.550661D-01
              MO Center=  2.4D-13, -1.3D-13, -5.4D-07, r^2= 2.0D+00
   Bfn.  Coefficient  Atom+Function         Bfn.  Coefficient  Atom+Function  
  ----- ------------  ---------------      ----- ------------  ---------------
    24      0.801838  2 O  pz                 9     -0.801837  1 O  pz         
    20     -0.536790  2 O  pz                 5      0.536789  1 O  pz         
     6     -0.170940  1 O  s                 21     -0.170939  2 O  s          
    15     -0.157339  1 O  dzz               30     -0.157338  2 O  dzz        
 
 Vector   16  Occ=0.000000D+00  E= 9.155891D-01
              MO Center= -3.8D-12,  2.0D-12, -5.1D-07, r^2= 1.9D+00
   Bfn.  Coefficient  Atom+Function         Bfn.  Coefficient  Atom+Function  
  ----- ------------  ---------------      ----- ------------  ---------------
    22      0.945497  2 O  px                 7     -0.945496  1 O  px         
    18     -0.567669  2 O  px                 3      0.567668  1 O  px         
    23     -0.496643  2 O  py                 8      0.496643  1 O  py         
    19      0.298181  2 O  py                 4     -0.298181  1 O  py         
 
 Vector   17  Occ=0.000000D+00  E= 9.272611D-01
              MO Center= -1.8D-13,  9.5D-14, -5.2D-07, r^2= 1.9D+00
   Bfn.  Coefficient  Atom+Function         Bfn.  Coefficient  Atom+Function  
  ----- ------------  ---------------      ----- ------------  ---------------
    23     -0.950998  2 O  py                 8      0.950997  1 O  py         
    19      0.560191  2 O  py                 4     -0.560190  1 O  py         
    22     -0.499533  2 O  px                 7      0.499533  1 O  px         
    18      0.294253  2 O  px                 3     -0.294252  1 O  px         
 
 Vector   18  Occ=0.000000D+00  E= 1.291186D+00
              MO Center=  1.1D-11, -5.9D-12, -3.9D-08, r^2= 1.9D+00
   Bfn.  Coefficient  Atom+Function         Bfn.  Coefficient  Atom+Function  
  ----- ------------  ---------------      ----- ------------  ---------------
    21     -4.981774  2 O  s                  6      4.981774  1 O  s          
    24     -2.387807  2 O  pz                 9     -2.387807  1 O  pz         
    17      1.276537  2 O  s                  2     -1.276537  1 O  s          
    28      0.338632  2 O  dyy               13     -0.338632  1 O  dyy        
    25      0.331020  2 O  dxx               10     -0.331020  1 O  dxx        
 
 
                     DFT Final Beta Molecular Orbital Analysis
                     -----------------------------------------
 
 Vector    1  Occ=1.000000D+00  E=-1.930582D+01
              MO Center= -9.6D-15,  5.0D-15,  4.8D-04, r^2= 3.8D-01
   Bfn.  Coefficient  Atom+Function         Bfn.  Coefficient  Atom+Function  
  ----- ------------  ---------------      ----- ------------  ---------------
     1      0.702515  1 O  s                 16      0.701959  2 O  s          
 
 Vector    2  Occ=1.000000D+00  E=-1.930556D+01
              MO Center= -9.5D-15,  5.0D-15, -4.8D-04, r^2= 3.8D-01
   Bfn.  Coefficient  Atom+Function         Bfn.  Coefficient  Atom+Function  
  ----- ------------  ---------------      ----- ------------  ---------------
    16     -0.702353  2 O  s                  1      0.701797  1 O  s          
 
 Vector    3  Occ=1.000000D+00  E=-1.288762D+00
              MO Center= -5.6D-12,  2.9D-12,  8.2D-08, r^2= 4.6D-01
   Bfn.  Coefficient  Atom+Function         Bfn.  Coefficient  Atom+Function  
  ----- ------------  ---------------      ----- ------------  ---------------
     2      0.353233  1 O  s                 17      0.353233  2 O  s          
     6      0.219639  1 O  s                 21      0.219639  2 O  s          
    20      0.186968  2 O  pz                 5     -0.186968  1 O  pz         
     1     -0.151441  1 O  s                 16     -0.151441  2 O  s          
 
 Vector    4  Occ=1.000000D+00  E=-7.936973D-01
              MO Center= -3.1D-12,  1.7D-12,  2.4D-07, r^2= 1.1D+00
   Bfn.  Coefficient  Atom+Function         Bfn.  Coefficient  Atom+Function  
  ----- ------------  ---------------      ----- ------------  ---------------
     6      0.479726  1 O  s                 21     -0.479726  2 O  s          
     2      0.388379  1 O  s                 17     -0.388379  2 O  s          
     1     -0.165186  1 O  s                 16      0.165186  2 O  s          
 
 Vector    5  Occ=1.000000D+00  E=-5.333907D-01
              MO Center= -3.9D-11,  2.0D-11, -2.8D-07, r^2= 1.1D+00
   Bfn.  Coefficient  Atom+Function         Bfn.  Coefficient  Atom+Function  
  ----- ------------  ---------------      ----- ------------  ---------------
    20     -0.467727  2 O  pz                 5      0.467727  1 O  pz         
    21      0.296196  2 O  s                  6      0.296195  1 O  s          
     9      0.219481  1 O  pz                24     -0.219481  2 O  pz         
 
 Vector    6  Occ=1.000000D+00  E=-5.206495D-01
              MO Center=  4.2D-11, -2.2D-11,  8.8D-08, r^2= 8.3D-01
   Bfn.  Coefficient  Atom+Function         Bfn.  Coefficient  Atom+Function  
  ----- ------------  ---------------      ----- ------------  ---------------
     3     -0.405231  1 O  px                18     -0.405231  2 O  px         
     7     -0.235609  1 O  px                22     -0.235609  2 O  px         
     4      0.212852  1 O  py                19      0.212852  2 O  py         
 
 Vector    7  Occ=1.000000D+00  E=-5.124338D-01
              MO Center= -8.5D-13,  4.1D-13,  2.6D-07, r^2= 8.2D-01
   Bfn.  Coefficient  Atom+Function         Bfn.  Coefficient  Atom+Function  
  ----- ------------  ---------------      ----- ------------  ---------------
     4     -0.412310  1 O  py                19     -0.412310  2 O  py         
     8     -0.230151  1 O  py                23     -0.230151  2 O  py         
     3     -0.216570  1 O  px                18     -0.216570  2 O  px         
 
 Vector    8  Occ=1.000000D+00  E=-2.454173D-01
              MO Center= -7.2D-13,  3.6D-13, -2.6D-07, r^2= 9.4D-01
   Bfn.  Coefficient  Atom+Function         Bfn.  Coefficient  Atom+Function  
  ----- ------------  ---------------      ----- ------------  ---------------
    19      0.474349  2 O  py                 4     -0.474348  1 O  py         
    23      0.352496  2 O  py                 8     -0.352496  1 O  py         
    18      0.248253  2 O  px                 3     -0.248253  1 O  px         
    22      0.184438  2 O  px                 7     -0.184438  1 O  px         
 
 Vector    9  Occ=0.000000D+00  E=-1.743350D-01
              MO Center=  7.9D-13, -4.1D-13, -7.7D-08, r^2= 9.7D-01
   Bfn.  Coefficient  Atom+Function         Bfn.  Coefficient  Atom+Function  
  ----- ------------  ---------------      ----- ------------  ---------------
    18     -0.465364  2 O  px                 3      0.465364  1 O  px         
    22     -0.367667  2 O  px                 7      0.367667  1 O  px         
    19      0.243516  2 O  py                 4     -0.243516  1 O  py         
    23      0.192436  2 O  py                 8     -0.192436  1 O  py         
 
 Vector   10  Occ=0.000000D+00  E= 2.312275D-01
              MO Center= -6.1D-13,  3.2D-13, -2.0D-08, r^2= 1.2D+00
   Bfn.  Coefficient  Atom+Function         Bfn.  Coefficient  Atom+Function  
  ----- ------------  ---------------      ----- ------------  ---------------
    21      1.135764  2 O  s                  6     -1.135764  1 O  s          
    24      1.060540  2 O  pz                 9      1.060540  1 O  pz         
    20      0.516347  2 O  pz                 5      0.516346  1 O  pz         
     2     -0.247080  1 O  s                 17      0.247080  2 O  s          
 
 Vector   11  Occ=0.000000D+00  E= 6.766562D-01
              MO Center= -5.5D-11,  2.9D-11,  1.1D-06, r^2= 1.8D+00
   Bfn.  Coefficient  Atom+Function         Bfn.  Coefficient  Atom+Function  
  ----- ------------  ---------------      ----- ------------  ---------------
    21      1.390744  2 O  s                  6      1.390743  1 O  s          
     2     -0.918572  1 O  s                 17     -0.918571  2 O  s          
    15     -0.359077  1 O  dzz               30     -0.359076  2 O  dzz        
    13     -0.264624  1 O  dyy               28     -0.264624  2 O  dyy        
    10     -0.259406  1 O  dxx               25     -0.259406  2 O  dxx        
 
 Vector   12  Occ=0.000000D+00  E= 7.161769D-01
              MO Center= -6.9D-12,  3.6D-12, -5.4D-07, r^2= 2.5D+00
   Bfn.  Coefficient  Atom+Function         Bfn.  Coefficient  Atom+Function  
  ----- ------------  ---------------      ----- ------------  ---------------
     9      1.451862  1 O  pz                24      1.451862  2 O  pz         
     6     -0.661659  1 O  s                 21      0.661656  2 O  s          
     5     -0.545626  1 O  pz                20     -0.545626  2 O  pz         
    30      0.373618  2 O  dzz               15     -0.373617  1 O  dzz        
    17      0.265538  2 O  s                  2     -0.265537  1 O  s          
 
 Vector   13  Occ=0.000000D+00  E= 7.911208D-01
              MO Center=  5.4D-11, -2.8D-11,  5.2D-07, r^2= 1.5D+00
   Bfn.  Coefficient  Atom+Function         Bfn.  Coefficient  Atom+Function  
  ----- ------------  ---------------      ----- ------------  ---------------
     3     -0.582560  1 O  px                18     -0.582559  2 O  px         
     7      0.559863  1 O  px                22      0.559862  2 O  px         
     4      0.305999  1 O  py                19      0.305998  2 O  py         
     8     -0.294077  1 O  py                23     -0.294076  2 O  py         
 
 Vector   14  Occ=0.000000D+00  E= 8.086812D-01
              MO Center= -3.2D-13,  1.6D-13,  5.3D-07, r^2= 1.5D+00
   Bfn.  Coefficient  Atom+Function         Bfn.  Coefficient  Atom+Function  
  ----- ------------  ---------------      ----- ------------  ---------------
     4     -0.578795  1 O  py                19     -0.578795  2 O  py         
     8      0.562151  1 O  py                23      0.562151  2 O  py         
     3     -0.304021  1 O  px                18     -0.304021  2 O  px         
     7      0.295279  1 O  px                22      0.295278  2 O  px         
 
 Vector   15  Occ=0.000000D+00  E= 8.550661D-01
              MO Center=  2.4D-13, -1.2D-13, -5.5D-07, r^2= 2.0D+00
   Bfn.  Coefficient  Atom+Function         Bfn.  Coefficient  Atom+Function  
  ----- ------------  ---------------      ----- ------------  ---------------
    24      0.801838  2 O  pz                 9     -0.801837  1 O  pz         
    20     -0.536790  2 O  pz                 5      0.536789  1 O  pz         
     6     -0.170940  1 O  s                 21     -0.170939  2 O  s          
    15     -0.157339  1 O  dzz               30     -0.157339  2 O  dzz        
 
 Vector   16  Occ=0.000000D+00  E= 9.155891D-01
              MO Center= -3.8D-12,  2.0D-12, -5.2D-07, r^2= 1.9D+00
   Bfn.  Coefficient  Atom+Function         Bfn.  Coefficient  Atom+Function  
  ----- ------------  ---------------      ----- ------------  ---------------
    22     -0.945498  2 O  px                 7      0.945498  1 O  px         
    18      0.567670  2 O  px                 3     -0.567669  1 O  px         
    23      0.496641  2 O  py                 8     -0.496640  1 O  py         
    19     -0.298179  2 O  py                 4      0.298179  1 O  py         
 
 Vector   17  Occ=0.000000D+00  E= 9.272611D-01
              MO Center= -1.8D-13,  1.0D-13, -5.2D-07, r^2= 1.9D+00
   Bfn.  Coefficient  Atom+Function         Bfn.  Coefficient  Atom+Function  
  ----- ------------  ---------------      ----- ------------  ---------------
    23     -0.950999  2 O  py                 8      0.950999  1 O  py         
    19      0.560191  2 O  py                 4     -0.560191  1 O  py         
    22     -0.499530  2 O  px                 7      0.499530  1 O  px         
    18      0.294251  2 O  px                 3     -0.294251  1 O  px         
 
 Vector   18  Occ=0.000000D+00  E= 1.291186D+00
              MO Center=  1.1D-11, -5.9D-12, -4.0D-08, r^2= 1.9D+00
   Bfn.  Coefficient  Atom+Function         Bfn.  Coefficient  Atom+Function  
  ----- ------------  ---------------      ----- ------------  ---------------
    21     -4.981774  2 O  s                  6      4.981774  1 O  s          
    24     -2.387807  2 O  pz                 9     -2.387807  1 O  pz         
    17      1.276537  2 O  s                  2     -1.276537  1 O  s          
    28      0.338632  2 O  dyy               13     -0.338632  1 O  dyy        
    25      0.331020  2 O  dxx               10     -0.331020  1 O  dxx        
 

   alpha - beta orbital overlaps 
   ----------------------------- 


   alpha      1      2      3      4      5      6      7      8      9     10
    beta      1      2      3      4      5      6      7      8      9     10
 overlap   1.000  1.000  1.000  1.000  1.000  1.000  1.000  1.000  1.000  1.000


   alpha     11     12     13     14     15     16     17     18     19     20
    beta     11     12     13     14     15     16     17     18     19     20
 overlap   1.000  1.000  1.000  1.000  1.000  1.000  1.000  1.000  1.000  1.000


   alpha     21     22     23     24     25     26     27     28     29     30
    beta     21     22     23     24     25     26     27     28     29     30
 overlap   1.000  1.000  1.000  1.000  1.000  1.000  1.000  1.000  1.000  1.000


     --------------------------
     Expectation value of S2:  
     --------------------------
      <S2> =      0.0000 (Exact =     0.0000)
 

 center of mass
 --------------
 x =   0.00000000 y =   0.00000000 z =   0.00000000

 moments of inertia (a.u.)
 ------------------
          41.217266175299           0.000000000000           0.000000000000
           0.000000000000          41.217266175299           0.000000000000
           0.000000000000           0.000000000000           0.000000000000
 
     Multipole analysis of the density
     ---------------------------------
 
     L   x y z        total         alpha         beta         nuclear
     -   - - -        -----         -----         ----         -------
     0   0 0 0      0.000000     -8.000000     -8.000000     16.000000
 
     1   1 0 0      0.000000      0.000000      0.000000      0.000000
     1   0 1 0      0.000000      0.000000      0.000000      0.000000
     1   0 0 1      0.000000      0.000000      0.000000      0.000000
 
     2   2 0 0     -6.933900     -3.467829     -3.466071      0.000000
     2   1 1 0     -0.531523     -0.266367     -0.265156      0.000000
     2   1 0 1      0.000000      0.000000      0.000000      0.000000
     2   0 2 0     -7.666627     -3.832435     -3.834192      0.000000
     2   0 1 1      0.000000      0.000000      0.000000      0.000000
     2   0 0 2     -7.676140    -14.145666    -14.145666     20.615191
 

 Parallel integral file used       4 records with       0 large values


 Task  times  cpu:        2.8s     wall:        3.9s
 
 
                                NWChem Input Module
                                -------------------
 
 
 Summary of allocated global arrays
-----------------------------------
  No active global arrays



                         GA Statistics for process    0
                         ------------------------------

       create   destroy   get      put      acc     scatter   gather  read&inc
calls: 1014     1014     1.39e+04 2524     4482        0        0        0     
number of processes/call 1.36e+00 1.42e+00 1.00e+00 0.00e+00 0.00e+00
bytes total:             2.09e+07 4.09e+06 8.07e+06 0.00e+00 0.00e+00 0.00e+00
bytes remote:            1.20e+07 1.72e+06 5.54e+06 0.00e+00 0.00e+00 0.00e+00
Max memory consumed for GA by this process: 132360 bytes
 
MA_summarize_allocated_blocks: starting scan ...
MA_summarize_allocated_blocks: scan completed: 0 heap blocks, 0 stack blocks
MA usage statistics:

	allocation statistics:
					      heap	     stack
					      ----	     -----
	current number of blocks	         0	         0
	maximum number of blocks	        23	        48
	current total bytes		         0	         0
	maximum total bytes		   1553776	  22511400
	maximum total K-bytes		      1554	     22512
	maximum total M-bytes		         2	        23
 
 
                                     CITATION
                                     --------
                Please cite the following reference when publishing
                           results obtained with NWChem:
 
                 M. Valiev, E.J. Bylaska, N. Govind, K. Kowalski,
              T.P. Straatsma, H.J.J. van Dam, D. Wang, J. Nieplocha,
                        E. Apra, T.L. Windus, W.A. de Jong
                 "NWChem: a comprehensive and scalable open-source
                  solution for large scale molecular simulations"
                      Comput. Phys. Commun. 181, 1477 (2010)
                           doi:10.1016/j.cpc.2010.04.018
 
                              AUTHORS & CONTRIBUTORS
                              ----------------------
      E. J. Bylaska, W. A. de Jong, N. Govind, K. Kowalski, T. P. Straatsma,
     M. Valiev, H. J. J. van Dam, D. Wang, E. Apra, T. L. Windus, J. Hammond,
     J. Autschbach, P. Nichols, S. Hirata, M. T. Hackler, Y. Zhao, P.-D. Fan,
      R. J. Harrison, M. Dupuis, D. M. A. Smith, K. Glaesemann, J. Nieplocha,
      V. Tipparaju, M. Krishnan, A. Vazquez-Mayagoitia, L. Jensen, M. Swart,
      Q. Wu, T. Van Voorhis, A. A. Auer, M. Nooijen, L. D. Crosby, E. Brown,
             G. Cisneros, G. I. Fann, H. Fruchtl, J. Garza, K. Hirao,
        R. Kendall, J. A. Nichols, K. Tsemekhman, K. Wolinski, J. Anchell,
       D. Bernholdt, P. Borowski, T. Clark, D. Clerc, H. Dachsel, M. Deegan,
        K. Dyall, D. Elwood, E. Glendening, M. Gutowski, A. Hess, J. Jaffe,
        B. Johnson, J. Ju, R. Kobayashi, R. Kutteh, Z. Lin, R. Littlefield,
    X. Long, B. Meng, T. Nakajima, S. Niu, L. Pollack, M. Rosing, G. Sandrone,
       M. Stave, H. Taylor, G. Thomas, J. H. van Lenthe, A. Wong, Z. Zhang.

 Total times  cpu:        3.4s     wall:        4.9s
