 argument  1 = mp2_si2h6_opt.nw



============================== echo of input deck ==============================
echo
start disilane
title "disilane, Si2H6"

geometry autoz
  symmetry group d3d
  Si          0.0         0.0               1.181424
  H           0.990312   -0.990312          1.694694
end

basis spherical
  H  library cc-pvdz
  Si library cc-pvdz
end

mp2
  freeze atomic
end

task mp2 energy
task mp2 optimize

================================================================================


                                         
                                         


              Northwest Computational Chemistry Package (NWChem) 6.0
              ------------------------------------------------------


                    Environmental Molecular Sciences Laboratory
                       Pacific Northwest National Laboratory
                                Richland, WA 99352

                              Copyright (c) 1994-2010
                       Pacific Northwest National Laboratory
                            Battelle Memorial Institute

             NWChem is an open-source computational chemistry package
                        distributed under the terms of the
                      Educational Community License (ECL) 2.0
             A copy of the license is included with this distribution
                              in the LICENSE.TXT file

                                  ACKNOWLEDGMENT
                                  --------------

            This software and its documentation were developed at the
            EMSL at Pacific Northwest National Laboratory, a multiprogram
            national laboratory, operated for the U.S. Department of Energy
            by Battelle under Contract Number DE-AC05-76RL01830. Support
            for this work was provided by the Department of Energy Office
            of Biological and Environmental Research, Office of Basic
            Energy Sciences, and the Office of Advanced Scientific Computing.


           Job information
           ---------------

    hostname      = arcen
    program       = ../../../bin/LINUX64/nwchem
    date          = Mon Nov 29 17:59:58 2010

    compiled      = Fri_Nov_19_21:27:19_2010
    source        = /home/d3y133/nwchem-releases/nwchem-6.0-gfortran
    nwchem branch = 6.0
    input         = mp2_si2h6_opt.nw
    prefix        = disilane.
    data base     = ./disilane.db
    status        = startup
    nproc         =        4
    time left     =     -1s



           Memory information
           ------------------

    heap     =   13107201 doubles =    100.0 Mbytes
    stack    =   13107201 doubles =    100.0 Mbytes
    global   =   26214400 doubles =    200.0 Mbytes (distinct from heap & stack)
    total    =   52428802 doubles =    400.0 Mbytes
    verify   = yes
    hardfail = no 


           Directory information
           ---------------------

  0 permanent = .
  0 scratch   = .




                                NWChem Input Module
                                -------------------


                                  disilane, Si2H6
                                  ---------------

 Scaling coordinates for geometry "geometry" by  1.889725989
 (inverse scale =  0.529177249)

 Turning off AUTOSYM since
 SYMMETRY directive was detected!


          ------
          auto-z
          ------


                             Geometry "geometry" -> ""
                             -------------------------

 Output coordinates in angstroms (scale by  1.889725989 to convert to a.u.)

  No.       Tag          Charge          X              Y              Z
 ---- ---------------- ---------- -------------- -------------- --------------
    1 Si                  14.0000     0.00000000     0.00000000     1.18142400
    2 Si                  14.0000     0.00000000     0.00000000    -1.18142400
    3 H                    1.0000     0.99031200    -0.99031200     1.69469400
    4 H                    1.0000     0.36247935     1.35279135     1.69469400
    5 H                    1.0000    -1.35279135    -0.36247935     1.69469400
    6 H                    1.0000    -0.99031200     0.99031200    -1.69469400
    7 H                    1.0000     1.35279135     0.36247935    -1.69469400
    8 H                    1.0000    -0.36247935    -1.35279135    -1.69469400

      Atomic Mass 
      ----------- 

      Si                27.976930
      H                  1.007825


 Effective nuclear repulsion energy (a.u.)      90.1274120146

            Nuclear Dipole moment (a.u.) 
            ----------------------------
        X                 Y               Z
 ---------------- ---------------- ----------------
     0.0000000000     0.0000000000     0.0000000000

      Symmetry information
      --------------------

 Group name             D3d       
 Group number             33
 Group order              12
 No. of unique centers     2

      Symmetry unique atoms

     1    3



                                Z-matrix (autoz)
                                -------- 

 Units are Angstrom for bonds and degrees for angles

      Type          Name      I     J     K     L     M      Value
      ----------- --------  ----- ----- ----- ----- ----- ----------
    1 Stretch                  1     2                       2.36285
    2 Stretch                  1     3                       1.49160
    3 Stretch                  1     4                       1.49160
    4 Stretch                  1     5                       1.49160
    5 Stretch                  2     6                       1.49160
    6 Stretch                  2     7                       1.49160
    7 Stretch                  2     8                       1.49160
    8 Bend                     1     2     6               110.12724
    9 Bend                     1     2     7               110.12724
   10 Bend                     1     2     8               110.12724
   11 Bend                     2     1     3               110.12724
   12 Bend                     2     1     4               110.12724
   13 Bend                     2     1     5               110.12724
   14 Bend                     3     1     4               108.80731
   15 Bend                     3     1     5               108.80731
   16 Bend                     4     1     5               108.80731
   17 Bend                     6     2     7               108.80731
   18 Bend                     6     2     8               108.80731
   19 Bend                     7     2     8               108.80731
   20 Torsion                  3     1     2     6         180.00000
   21 Torsion                  3     1     2     7         -60.00000
   22 Torsion                  3     1     2     8          60.00000
   23 Torsion                  4     1     2     6         -60.00000
   24 Torsion                  4     1     2     7          60.00000
   25 Torsion                  4     1     2     8         180.00000
   26 Torsion                  5     1     2     6          60.00000
   27 Torsion                  5     1     2     7         180.00000
   28 Torsion                  5     1     2     8         -60.00000


            XYZ format geometry
            -------------------
     8
 geometry
 Si                    0.00000000     0.00000000     1.18142400
 Si                    0.00000000     0.00000000    -1.18142400
 H                     0.99031200    -0.99031200     1.69469400
 H                     0.36247935     1.35279135     1.69469400
 H                    -1.35279135    -0.36247935     1.69469400
 H                    -0.99031200     0.99031200    -1.69469400
 H                     1.35279135     0.36247935    -1.69469400
 H                    -0.36247935    -1.35279135    -1.69469400

 ==============================================================================
                                internuclear distances
 ------------------------------------------------------------------------------
       center one      |      center two      | atomic units |  angstroms
 ------------------------------------------------------------------------------
    2 Si               |   1 Si               |     4.46514  |     2.36285
    3 H                |   1 Si               |     2.81872  |     1.49160
    4 H                |   1 Si               |     2.81872  |     1.49160
    5 H                |   1 Si               |     2.81872  |     1.49160
    6 H                |   2 Si               |     2.81872  |     1.49160
    7 H                |   2 Si               |     2.81872  |     1.49160
    8 H                |   2 Si               |     2.81872  |     1.49160
 ------------------------------------------------------------------------------
                         number of included internuclear distances:          7
 ==============================================================================



 ==============================================================================
                                 internuclear angles
 ------------------------------------------------------------------------------
        center 1       |       center 2       |       center 3       |  degrees
 ------------------------------------------------------------------------------
    2 Si               |   1 Si               |   3 H                |   110.13
    2 Si               |   1 Si               |   4 H                |   110.13
    2 Si               |   1 Si               |   5 H                |   110.13
    3 H                |   1 Si               |   4 H                |   108.81
    3 H                |   1 Si               |   5 H                |   108.81
    4 H                |   1 Si               |   5 H                |   108.81
    1 Si               |   2 Si               |   6 H                |   110.13
    1 Si               |   2 Si               |   7 H                |   110.13
    1 Si               |   2 Si               |   8 H                |   110.13
    6 H                |   2 Si               |   7 H                |   108.81
    6 H                |   2 Si               |   8 H                |   108.81
    7 H                |   2 Si               |   8 H                |   108.81
 ------------------------------------------------------------------------------
                            number of included internuclear angles:         12
 ==============================================================================



  library name resolved from: .nwchemrc
  library file name is: </home/d3y133/nwchem-releases/nwchem-merge/nwchem-dev/QA/../src/basis/libraries/>
  
                      Basis "ao basis" -> "" (spherical)
                      -----
  H (Hydrogen)
  ------------
            Exponent  Coefficients 
       -------------- ---------------------------------------------------------
  1 S  1.30100000E+01  0.019685
  1 S  1.96200000E+00  0.137977
  1 S  4.44600000E-01  0.478148

  2 S  1.22000000E-01  1.000000

  3 P  7.27000000E-01  1.000000

  Si (Silicon)
  ------------
            Exponent  Coefficients 
       -------------- ---------------------------------------------------------
  1 S  7.88600000E+04  0.000270
  1 S  1.18200000E+04  0.002097
  1 S  2.69200000E+03  0.010851
  1 S  7.63400000E+02  0.043675
  1 S  2.49600000E+02  0.137653
  1 S  9.02800000E+01  0.316644
  1 S  3.52900000E+01  0.418581
  1 S  1.45100000E+01  0.210212
  1 S  4.05300000E+00  0.014495
  1 S  1.48200000E+00 -0.002036
  1 S  2.51700000E-01  0.000624

  2 S  7.88600000E+04 -0.000072
  2 S  1.18200000E+04 -0.000555
  2 S  2.69200000E+03 -0.002938
  2 S  7.63400000E+02 -0.011769
  2 S  2.49600000E+02 -0.040291
  2 S  9.02800000E+01 -0.100609
  2 S  3.52900000E+01 -0.196528
  2 S  1.45100000E+01 -0.102382
  2 S  4.05300000E+00  0.527190
  2 S  1.48200000E+00  0.593251
  2 S  2.51700000E-01  0.033265

  3 S  7.88600000E+04  0.000019
  3 S  1.18200000E+04  0.000142
  3 S  2.69200000E+03  0.000752
  3 S  7.63400000E+02  0.003023
  3 S  2.49600000E+02  0.010368
  3 S  9.02800000E+01  0.026256
  3 S  3.52900000E+01  0.052399
  3 S  1.45100000E+01  0.029096
  3 S  4.05300000E+00 -0.178003
  3 S  1.48200000E+00 -0.346874
  3 S  2.51700000E-01  0.623020

  4 S  9.24300000E-02  1.000000

  5 P  3.15900000E+02  0.003927
  5 P  7.44200000E+01  0.029881
  5 P  2.34800000E+01  0.127212
  5 P  8.48800000E+00  0.320943
  5 P  3.21700000E+00  0.455429
  5 P  1.22900000E+00  0.268563
  5 P  2.96400000E-01  0.018834

  6 P  3.15900000E+02 -0.000858
  6 P  7.44200000E+01 -0.006303
  6 P  2.34800000E+01 -0.028826
  6 P  8.48800000E+00 -0.069456
  6 P  3.21700000E+00 -0.119493
  6 P  1.22900000E+00 -0.019958
  6 P  2.96400000E-01  0.510268

  7 P  8.76800000E-02  1.000000

  8 D  2.75000000E-01  1.000000



 Summary of "ao basis" -> "" (spherical)
 ------------------------------------------------------------------------------
       Tag                 Description            Shells   Functions and Types
 ---------------- ------------------------------  ------  ---------------------
 H                          cc-pvdz                  3        5   2s1p
 Si                         cc-pvdz                  8       18   4s3p1d


                                 NWChem SCF Module
                                 -----------------


                                  disilane, Si2H6



  ao basis        = "ao basis"
  functions       =    66
  atoms           =     8
  closed shells   =    17
  open shells     =     0
  charge          =   0.00
  wavefunction    = RHF 
  input vectors   = atomic
  output vectors  = ./disilane.movecs
  use symmetry    = T
  symmetry adapt  = T


 Summary of "ao basis" -> "ao basis" (spherical)
 ------------------------------------------------------------------------------
       Tag                 Description            Shells   Functions and Types
 ---------------- ------------------------------  ------  ---------------------
 H                          cc-pvdz                  3        5   2s1p
 Si                         cc-pvdz                  8       18   4s3p1d


      Symmetry analysis of basis
      --------------------------

        a1g        12
        a1u         1
        a2g         1
        a2u        12
        eg         20
        eu         20


 Forming initial guess at       0.1s


      Superposition of Atomic Density Guess
      -------------------------------------

 Sum of atomic energies:        -580.66620987

      Non-variational initial energy
      ------------------------------

 Total energy =    -581.210123
 1-e energy   =    -983.208014
 2-e energy   =     311.870480
 HOMO         =      -0.324466
 LUMO         =       0.076849


      Symmetry analysis of molecular orbitals - initial
      -------------------------------------------------

  Numbering of irreducible representations: 

     1 a1g         2 a1u         3 a2g         4 a2u         5 eg      
     6 eu      

  Orbital symmetries:

     1 a2u         2 a1g         3 a1g         4 a2u         5 eu      
     6 eu          7 eg          8 eg          9 a1g        10 a2u     
    11 a1g        12 a2u        13 eu         14 eu         15 eg      
    16 eg         17 a1g        18 eu         19 eu         20 a2u     
    21 a1g        22 eg         23 eg         24 a2u        25 a1g     
    26 eu         27 eu      


 Starting SCF solution at       0.8s



 ----------------------------------------------
         Quadratically convergent ROHF

 Convergence threshold     :          1.000E-06
 Maximum no. of iterations :           30
 Final Fock-matrix accuracy:          1.000E-08
 ----------------------------------------------


 Integral file          = ./disilane.aoints.0
 Record size in doubles =  65536        No. of integs per rec  =  43688
 Max. records in memory =      4        Max. records in file   =  18323
 No. of bits per label  =      8        No. of bits per value  =     64


 #quartets = 2.966D+04 #integrals = 3.567D+05 #direct =  0.0% #cached =100.0%


File balance: exchanges=     0  moved=     0  time=   0.0


              iter       energy          gnorm     gmax       time
             ----- ------------------- --------- --------- --------
                 1     -581.3091824735  4.29D-01  1.48D-01      1.3
                 2     -581.3380684648  8.78D-02  2.46D-02      1.4
                 3     -581.3391532806  3.72D-03  9.89D-04      1.4
                 4     -581.3391552441  3.16D-06  9.52D-07      1.5
                 5     -581.3391552441  9.62D-08  3.11D-08      1.5


       Final RHF  results 
       ------------------ 

         Total SCF energy =   -581.339155244100
      One-electron energy =   -984.885806027209
      Two-electron energy =    313.419238768504
 Nuclear repulsion energy =     90.127412014605

        Time for solution =      0.8s



       Symmetry analysis of molecular orbitals - final
       -----------------------------------------------

  Numbering of irreducible representations: 

     1 a1g         2 a1u         3 a2g         4 a2u         5 eg      
     6 eu      

  Orbital symmetries:

     1 a1g         2 a2u         3 a1g         4 a2u         5 a1g     
     6 eu          7 eu          8 eg          9 eg         10 a2u     
    11 a1g        12 a2u        13 eu         14 eu         15 eg      
    16 eg         17 a1g        18 eu         19 eu         20 a2u     
    21 a1g        22 eg         23 eg         24 a2u        25 a1g     
    26 eu         27 eu      

             Final eigenvalues
             -----------------

              1      
    1  -68.7804
    2  -68.7804
    3   -6.1312
    4   -6.1311
    5   -4.2371
    6   -4.2370
    7   -4.2370
    8   -4.2369
    9   -4.2369
   10   -4.2365
   11   -0.7579
   12   -0.6798
   13   -0.4984
   14   -0.4984
   15   -0.4711
   16   -0.4711
   17   -0.4022
   18    0.1415
   19    0.1415
   20    0.1488
   21    0.1755
   22    0.1926
   23    0.1926
   24    0.2209
   25    0.3530
   26    0.4030
   27    0.4030

                       ROHF Final Molecular Orbital Analysis
                       -------------------------------------

 Vector    8  Occ=2.000000D+00  E=-4.236927D+00  Symmetry=eg
              MO Center= -1.1D-20,  3.8D-21, -3.9D-16, r^2= 1.5D+00
   Bfn.  Coefficient  Atom+Function         Bfn.  Coefficient  Atom+Function  
  ----- ------------  ---------------      ----- ------------  ---------------
    23      0.693917  2 Si px                 5     -0.693917  1 Si px         

 Vector    9  Occ=2.000000D+00  E=-4.236927D+00  Symmetry=eg
              MO Center=  3.0D-19, -2.2D-18, -1.3D-16, r^2= 1.5D+00
   Bfn.  Coefficient  Atom+Function         Bfn.  Coefficient  Atom+Function  
  ----- ------------  ---------------      ----- ------------  ---------------
    24      0.693917  2 Si py                 6     -0.693917  1 Si py         

 Vector   10  Occ=2.000000D+00  E=-4.236528D+00  Symmetry=a2u
              MO Center= -1.5D-21,  1.1D-21,  5.4D-17, r^2= 1.5D+00
   Bfn.  Coefficient  Atom+Function         Bfn.  Coefficient  Atom+Function  
  ----- ------------  ---------------      ----- ------------  ---------------
     7      0.707524  1 Si pz                25      0.707524  2 Si pz         

 Vector   11  Occ=2.000000D+00  E=-7.578634D-01  Symmetry=a1g
              MO Center=  2.9D-17,  1.9D-17,  1.1D-17, r^2= 3.2D+00
   Bfn.  Coefficient  Atom+Function         Bfn.  Coefficient  Atom+Function  
  ----- ------------  ---------------      ----- ------------  ---------------
     3      0.310977  1 Si s                 21      0.310977  2 Si s          
    22      0.181965  2 Si s                  4      0.181965  1 Si s          

 Vector   12  Occ=2.000000D+00  E=-6.798332D-01  Symmetry=a2u
              MO Center= -1.9D-17, -1.5D-17,  2.0D-16, r^2= 4.3D+00
   Bfn.  Coefficient  Atom+Function         Bfn.  Coefficient  Atom+Function  
  ----- ------------  ---------------      ----- ------------  ---------------
     3     -0.279850  1 Si s                 21      0.279850  2 Si s          
     4     -0.178987  1 Si s                 22      0.178987  2 Si s          

 Vector   13  Occ=2.000000D+00  E=-4.984112D-01  Symmetry=eu
              MO Center=  1.1D-16, -3.4D-16,  2.7D-16, r^2= 4.6D+00
   Bfn.  Coefficient  Atom+Function         Bfn.  Coefficient  Atom+Function  
  ----- ------------  ---------------      ----- ------------  ---------------
    62      0.241216  8 H  s                 42     -0.241216  4 H  s          
     9     -0.231805  1 Si py                27     -0.231805  2 Si py         
    52     -0.167954  6 H  s                 37      0.167954  3 H  s          

 Vector   14  Occ=2.000000D+00  E=-4.984112D-01  Symmetry=eu
              MO Center=  5.5D-18, -5.5D-19, -3.3D-17, r^2= 4.6D+00
   Bfn.  Coefficient  Atom+Function         Bfn.  Coefficient  Atom+Function  
  ----- ------------  ---------------      ----- ------------  ---------------
    47      0.236234  5 H  s                 57     -0.236234  7 H  s          
    26     -0.231805  2 Si px                 8     -0.231805  1 Si px         
    52      0.181564  6 H  s                 37     -0.181564  3 H  s          

 Vector   15  Occ=2.000000D+00  E=-4.711155D-01  Symmetry=eg
              MO Center= -7.4D-16, -2.2D-15,  1.3D-15, r^2= 4.9D+00
   Bfn.  Coefficient  Atom+Function         Bfn.  Coefficient  Atom+Function  
  ----- ------------  ---------------      ----- ------------  ---------------
    47      0.238207  5 H  s                 57      0.238207  7 H  s          
    42     -0.212514  4 H  s                 62     -0.212514  8 H  s          
    26      0.173248  2 Si px                 8     -0.173248  1 Si px         
    48      0.154678  5 H  s                 58      0.154678  7 H  s          

 Vector   16  Occ=2.000000D+00  E=-4.711155D-01  Symmetry=eg
              MO Center= -7.0D-16, -2.8D-16,  1.2D-15, r^2= 4.9D+00
   Bfn.  Coefficient  Atom+Function         Bfn.  Coefficient  Atom+Function  
  ----- ------------  ---------------      ----- ------------  ---------------
    37      0.260224  3 H  s                 52      0.260224  6 H  s          
    27      0.173248  2 Si py                 9     -0.173248  1 Si py         
    38      0.168975  3 H  s                 53      0.168975  6 H  s          
    42     -0.152363  4 H  s                 62     -0.152363  8 H  s          

 Vector   17  Occ=2.000000D+00  E=-4.022267D-01  Symmetry=a1g
              MO Center=  3.3D-16,  3.2D-16,  5.4D-16, r^2= 3.0D+00
   Bfn.  Coefficient  Atom+Function         Bfn.  Coefficient  Atom+Function  
  ----- ------------  ---------------      ----- ------------  ---------------
    10      0.331686  1 Si pz                28     -0.331686  2 Si pz         
    31     -0.194591  2 Si pz                13      0.194591  1 Si pz         

 Vector   18  Occ=0.000000D+00  E= 1.414786D-01  Symmetry=eu
              MO Center= -2.8D-16,  1.7D-16,  5.8D-16, r^2= 4.6D+00
   Bfn.  Coefficient  Atom+Function         Bfn.  Coefficient  Atom+Function  
  ----- ------------  ---------------      ----- ------------  ---------------
    43      0.788696  4 H  s                 63     -0.788696  8 H  s          
    12     -0.779048  1 Si py                30     -0.779048  2 Si py         
    48     -0.545766  5 H  s                 58      0.545766  7 H  s          
    29     -0.405538  2 Si px                11     -0.405538  1 Si px         
    38     -0.242930  3 H  s                 53      0.242930  6 H  s          

 Vector   19  Occ=0.000000D+00  E= 1.414786D-01  Symmetry=eu
              MO Center=  9.9D-16, -7.5D-16, -1.4D-14, r^2= 4.6D+00
   Bfn.  Coefficient  Atom+Function         Bfn.  Coefficient  Atom+Function  
  ----- ------------  ---------------      ----- ------------  ---------------
    11      0.779048  1 Si px                29      0.779048  2 Si px         
    38     -0.770452  3 H  s                 53      0.770452  6 H  s          
    48      0.595610  5 H  s                 58     -0.595610  7 H  s          
    12     -0.405538  1 Si py                30     -0.405538  2 Si py         
    43      0.174843  4 H  s                 63     -0.174843  8 H  s          

 Vector   20  Occ=0.000000D+00  E= 1.488456D-01  Symmetry=a2u
              MO Center= -3.6D-17,  1.2D-17,  1.4D-16, r^2= 7.2D+00
   Bfn.  Coefficient  Atom+Function         Bfn.  Coefficient  Atom+Function  
  ----- ------------  ---------------      ----- ------------  ---------------
     4      1.441984  1 Si s                 22     -1.441984  2 Si s          
    13     -1.373209  1 Si pz                31     -1.373209  2 Si pz         

 Vector   21  Occ=0.000000D+00  E= 1.754555D-01  Symmetry=a1g
              MO Center= -3.0D-16,  8.2D-16, -1.5D-15, r^2= 7.0D+00
   Bfn.  Coefficient  Atom+Function         Bfn.  Coefficient  Atom+Function  
  ----- ------------  ---------------      ----- ------------  ---------------
    22      1.473395  2 Si s                  4      1.473395  1 Si s          
    58     -0.782432  7 H  s                 38     -0.782432  3 H  s          
    63     -0.782432  8 H  s                 53     -0.782432  6 H  s          
    43     -0.782432  4 H  s                 48     -0.782432  5 H  s          
    13      0.778580  1 Si pz                31     -0.778580  2 Si pz         

 Vector   22  Occ=0.000000D+00  E= 1.925943D-01  Symmetry=eg
              MO Center= -3.8D-14,  1.4D-14,  2.6D-15, r^2= 6.4D+00
   Bfn.  Coefficient  Atom+Function         Bfn.  Coefficient  Atom+Function  
  ----- ------------  ---------------      ----- ------------  ---------------
    29      1.671520  2 Si px                11     -1.671520  1 Si px         
    48     -1.083764  5 H  s                 58     -1.083764  7 H  s          
    53      1.056527  6 H  s                 38      1.056527  3 H  s          
    30     -0.408625  2 Si py                12      0.408625  1 Si py         

 Vector   23  Occ=0.000000D+00  E= 1.925943D-01  Symmetry=eg
              MO Center= -2.9D-15,  1.0D-15,  3.8D-15, r^2= 6.4D+00
   Bfn.  Coefficient  Atom+Function         Bfn.  Coefficient  Atom+Function  
  ----- ------------  ---------------      ----- ------------  ---------------
    12      1.671520  1 Si py                30     -1.671520  2 Si py         
    43     -1.235698  4 H  s                 63     -1.235698  8 H  s          
    38      0.641437  3 H  s                 53      0.641437  6 H  s          
    58      0.594261  7 H  s                 48      0.594261  5 H  s          
    29     -0.408625  2 Si px                11      0.408625  1 Si px         

 Vector   24  Occ=0.000000D+00  E= 2.208782D-01  Symmetry=a2u
              MO Center=  3.7D-14, -6.6D-15, -1.1D-15, r^2= 7.7D+00
   Bfn.  Coefficient  Atom+Function         Bfn.  Coefficient  Atom+Function  
  ----- ------------  ---------------      ----- ------------  ---------------
     4      1.865676  1 Si s                 22     -1.865676  2 Si s          
    38     -0.960859  3 H  s                 58      0.960859  7 H  s          
    43     -0.960859  4 H  s                 63      0.960859  8 H  s          
    53      0.960859  6 H  s                 48     -0.960859  5 H  s          
    31      0.609174  2 Si pz                13      0.609174  1 Si pz         

 Vector   25  Occ=0.000000D+00  E= 3.529703D-01  Symmetry=a1g
              MO Center=  8.4D-15,  1.2D-16,  9.8D-15, r^2= 7.8D+00
   Bfn.  Coefficient  Atom+Function         Bfn.  Coefficient  Atom+Function  
  ----- ------------  ---------------      ----- ------------  ---------------
    13      0.518619  1 Si pz                31     -0.518619  2 Si pz         
    10     -0.513272  1 Si pz                28      0.513272  2 Si pz         
    21     -0.398708  2 Si s                  3     -0.398708  1 Si s          
    38      0.309988  3 H  s                 58      0.309988  7 H  s          
    43      0.309988  4 H  s                 63      0.309988  8 H  s          

 Vector   26  Occ=0.000000D+00  E= 4.029628D-01  Symmetry=eu
              MO Center= -1.6D-15,  3.6D-16,  6.7D-16, r^2= 6.6D+00
   Bfn.  Coefficient  Atom+Function         Bfn.  Coefficient  Atom+Function  
  ----- ------------  ---------------      ----- ------------  ---------------
    38      0.593665  3 H  s                 53     -0.593665  6 H  s          
     9      0.488721  1 Si py                27      0.488721  2 Si py         
     8     -0.463489  1 Si px                26     -0.463489  2 Si px         
    43     -0.310456  4 H  s                 63      0.310456  8 H  s          
    48     -0.283208  5 H  s                 58      0.283208  7 H  s          

 Vector   27  Occ=0.000000D+00  E= 4.029628D-01  Symmetry=eu
              MO Center= -6.8D-15, -1.9D-15,  2.6D-14, r^2= 6.6D+00
   Bfn.  Coefficient  Atom+Function         Bfn.  Coefficient  Atom+Function  
  ----- ------------  ---------------      ----- ------------  ---------------
    48      0.521995  5 H  s                 58     -0.521995  7 H  s          
    63      0.506263  8 H  s                 43     -0.506263  4 H  s          
     8      0.488721  1 Si px                26      0.488721  2 Si px         
     9      0.463489  1 Si py                27      0.463489  2 Si py         
    11     -0.193555  1 Si px                29     -0.193555  2 Si px         

 Vector   28  Occ=0.000000D+00  E= 4.358877D-01  Symmetry=eg
              MO Center=  4.2D-14,  1.0D-14, -1.5D-14, r^2= 7.2D+00
   Bfn.  Coefficient  Atom+Function         Bfn.  Coefficient  Atom+Function  
  ----- ------------  ---------------      ----- ------------  ---------------
    53      0.585304  6 H  s                 38      0.585304  3 H  s          
     8     -0.488365  1 Si px                26      0.488365  2 Si px         
    27     -0.430842  2 Si py                 9      0.430842  1 Si py         
    11      0.336639  1 Si px                29     -0.336639  2 Si px         
    58     -0.324373  7 H  s                 48     -0.324373  5 H  s          

 Vector   29  Occ=0.000000D+00  E= 4.358877D-01  Symmetry=eg
              MO Center= -2.1D-14,  1.4D-14, -2.1D-14, r^2= 7.2D+00
   Bfn.  Coefficient  Atom+Function         Bfn.  Coefficient  Atom+Function  
  ----- ------------  ---------------      ----- ------------  ---------------
    43      0.525202  4 H  s                 63      0.525202  8 H  s          
    48     -0.488574  5 H  s                 58     -0.488574  7 H  s          
    27      0.488365  2 Si py                 9     -0.488365  1 Si py         
    26      0.430842  2 Si px                 8     -0.430842  1 Si px         
    30     -0.336639  2 Si py                12      0.336639  1 Si py         

 Vector   30  Occ=0.000000D+00  E= 4.633240D-01  Symmetry=eu
              MO Center= -1.1D-14, -5.0D-14, -4.4D-14, r^2= 4.0D+00
   Bfn.  Coefficient  Atom+Function         Bfn.  Coefficient  Atom+Function  
  ----- ------------  ---------------      ----- ------------  ---------------
    63      0.586262  8 H  s                 43     -0.586262  4 H  s          
    33     -0.524039  2 Si d -1              15      0.524039  1 Si d -1       
    12      0.455189  1 Si py                30      0.455189  2 Si py         
    48      0.408249  5 H  s                 58     -0.408249  7 H  s          
    35      0.276003  2 Si d  1              17     -0.276003  1 Si d  1       

 Vector   31  Occ=0.000000D+00  E= 4.633240D-01  Symmetry=eu
              MO Center= -2.0D-15,  2.2D-14, -3.0D-14, r^2= 4.0D+00
   Bfn.  Coefficient  Atom+Function         Bfn.  Coefficient  Atom+Function  
  ----- ------------  ---------------      ----- ------------  ---------------
    38      0.574181  3 H  s                 53     -0.574181  6 H  s          
    35     -0.524039  2 Si d  1              17      0.524039  1 Si d  1       
    11     -0.455189  1 Si px                29     -0.455189  2 Si px         
    48     -0.441254  5 H  s                 58      0.441254  7 H  s          
    33     -0.276003  2 Si d -1              15      0.276003  1 Si d -1       

 Vector   32  Occ=0.000000D+00  E= 4.802287D-01  Symmetry=a2u
              MO Center=  2.3D-15,  2.1D-14, -1.2D-14, r^2= 6.3D+00
   Bfn.  Coefficient  Atom+Function         Bfn.  Coefficient  Atom+Function  
  ----- ------------  ---------------      ----- ------------  ---------------
    31      1.389775  2 Si pz                13      1.389775  1 Si pz         
    28     -0.745336  2 Si pz                10     -0.745336  1 Si pz         
     4     -0.535930  1 Si s                 22      0.535930  2 Si s          
    16     -0.295494  1 Si d  0              34      0.295494  2 Si d  0       
    52      0.180294  6 H  s                 42     -0.180294  4 H  s          

 Vector   33  Occ=0.000000D+00  E= 5.245719D-01  Symmetry=a1g
              MO Center=  1.6D-15,  7.0D-16, -1.9D-15, r^2= 4.7D+00
   Bfn.  Coefficient  Atom+Function         Bfn.  Coefficient  Atom+Function  
  ----- ------------  ---------------      ----- ------------  ---------------
     4      2.569402  1 Si s                 22      2.569402  2 Si s          
    21     -1.228292  2 Si s                  3     -1.228292  1 Si s          
     2     -0.834966  1 Si s                 20     -0.834966  2 Si s          
    43     -0.628504  4 H  s                 63     -0.628504  8 H  s          
    58     -0.628504  7 H  s                 48     -0.628504  5 H  s          


 center of mass
 --------------
 x =   0.00000000 y =   0.00000000 z =   0.00000000

 moments of inertia (a.u.)
 ------------------
         362.089591109156           0.000000000000           0.000000000000
           0.000000000000         362.089591109156           0.000000000000
           0.000000000000           0.000000000000          42.355335679168

  Mulliken analysis of the total density
  --------------------------------------

    Atom       Charge   Shell Charges
 -----------   ------   -------------------------------------------------------
    1 Si  14    13.69   2.00  2.01  0.73  0.45  6.00  1.49  0.80  0.21
    2 Si  14    13.69   2.00  2.01  0.73  0.45  6.00  1.49  0.80  0.21
    3 H    1     1.10   0.72  0.37  0.01
    4 H    1     1.10   0.72  0.37  0.01
    5 H    1     1.10   0.72  0.37  0.01
    6 H    1     1.10   0.72  0.37  0.01
    7 H    1     1.10   0.72  0.37  0.01
    8 H    1     1.10   0.72  0.37  0.01

       Multipole analysis of the density wrt the origin
       ------------------------------------------------

     L   x y z        total         open         nuclear
     -   - - -        -----         ----         -------
     0   0 0 0      0.000000      0.000000     34.000000

     1   1 0 0      0.000000      0.000000      0.000000
     1   0 1 0      0.000000      0.000000      0.000000
     1   0 0 1      0.000000      0.000000      0.000000

     2   2 0 0    -23.852084      0.000000     21.013239
     2   1 1 0      0.000000      0.000000      0.000000
     2   1 0 1      0.000000      0.000000      0.000000
     2   0 2 0    -23.852084      0.000000     21.013239
     2   0 1 1      0.000000      0.000000      0.000000
     2   0 0 2    -24.776788      0.000000    201.098349


 Parallel integral file used      11 records with       0 large values

                   NWChem MP2 Semi-direct Energy/Gradient Module
                   ---------------------------------------------


                                  disilane, Si2H6


  Basis functions       =     66
  Molecular orbitals    =     66
  Frozen core           =     10
  Frozen virtuals       =      0
  Active alpha occupied =      7
  Active beta occupied  =      7
  Active alpha virtual  =     49
  Active beta virtual   =     49
  Use MO symmetry       = F
  Use skeleton AO sym   = T

  AO/Fock/Back tols     =   1.0D-09  1.0D-09  1.0D-09

 GA uses MA = F    GA memory limited = T

 Available: 
  local mem=  2.62D+07
 global mem=  2.62D+07
 local disk=  1.26D+09
   1 passes of   7:         540431                      10968                    207482.

 Semi-direct pass number   1 of   1  for RHF alpha+beta  at        1.8s
Node 0 wrote      1.6 Mb in      0.0 s     Agg I/O rate:   742.9 Mb/s
 Done moints_semi at        5.0s
 Done maket at        5.0s
 Done multipass loop at        5.0s


          -------------------------------------------
          SCF energy                -581.339155244100
          Correlation energy          -0.214183288490
          Singlet pairs               -0.171230539019
          Triplet pairs               -0.042952749471
          Total MP2 energy          -581.553338532590
          -------------------------------------------

 -----------------------
 Performance information
 -----------------------

 Timer overhead =  5.00D-07 seconds/call

               Nr. of calls         CPU time (s)                 Wall time (s)                GFlops
             ---------------    -------------------     ------------------------------   -------------------
Name         Min   Avg   Max    Min     Avg     Max     Min     Avg     Max   Mx/calls   Min     Max     Sum
mp2: moin     1     1     1    3.1     3.1     3.2      3.2     3.2     3.2     3.2      0.0     0.0     0.0   
mp2: make     1     1     1   2.30E-2 2.42E-2 2.50E-2  2.98E-2 2.98E-2 2.98E-2 2.98E-2   0.0     0.0     0.0   
mp2: tota     1     1     1    3.2     3.2     3.2      3.3     3.3     3.3     3.3      0.0     0.0     0.0   

 The average no. of pstat calls per process was 3.00D+00
 with a timing overhead of 1.50D-06s


 Task  times  cpu:        4.8s     wall:        5.0s


                                NWChem Input Module
                                -------------------




                           NWChem Geometry Optimization
                           ----------------------------




                                  disilane, Si2H6


 maximum gradient threshold         (gmax) =   0.000450
 rms gradient threshold             (grms) =   0.000300
 maximum cartesian step threshold   (xmax) =   0.001800
 rms cartesian step threshold       (xrms) =   0.001200
 fixed trust radius                (trust) =   0.300000
 maximum step size to saddle      (sadstp) =   0.100000
 energy precision                  (eprec) =   1.0D-07
 maximum number of steps          (nptopt) =   20
 initial hessian option           (inhess) =    0
 line search option               (linopt) =    1
 hessian update option            (modupd) =    1
 saddle point option              (modsad) =    0
 initial eigen-mode to follow     (moddir) =    0
 initial variable to follow       (vardir) =    0
 follow first negative mode     (firstneg) =    T
 apply conjugacy                    (opcg) =    F
 source of zmatrix                         =   autoz   


          -------------------
          Energy Minimization
          -------------------


 Names of Z-matrix variables 
    1              2              3              4              5         
    6              7              8              9             10         
   11             12             13             14             15         
   16             17             18             19             20         
   21             22             23             24             25         
   26             27             28         

 Variables with the same non-blank name are constrained to be equal


 Using old Hessian from previous optimization

          --------
          Step   0
          --------


                         Geometry "geometry" -> "geometry"
                         ---------------------------------

 Output coordinates in angstroms (scale by  1.889725989 to convert to a.u.)

  No.       Tag          Charge          X              Y              Z
 ---- ---------------- ---------- -------------- -------------- --------------
    1 Si                  14.0000     0.00000000     0.00000000     1.18142400
    2 Si                  14.0000     0.00000000     0.00000000    -1.18142400
    3 H                    1.0000     0.99031200    -0.99031200     1.69469400
    4 H                    1.0000     0.36247935     1.35279135     1.69469400
    5 H                    1.0000    -1.35279135    -0.36247935     1.69469400
    6 H                    1.0000    -0.99031200     0.99031200    -1.69469400
    7 H                    1.0000     1.35279135     0.36247935    -1.69469400
    8 H                    1.0000    -0.36247935    -1.35279135    -1.69469400

      Atomic Mass 
      ----------- 

      Si                27.976930
      H                  1.007825


 Effective nuclear repulsion energy (a.u.)      90.1274120146

            Nuclear Dipole moment (a.u.) 
            ----------------------------
        X                 Y               Z
 ---------------- ---------------- ----------------
     0.0000000000     0.0000000000     0.0000000000

      Symmetry information
      --------------------

 Group name             D3d       
 Group number             33
 Group order              12
 No. of unique centers     2

      Symmetry unique atoms

     1    3

                                 NWChem SCF Module
                                 -----------------


                                  disilane, Si2H6



  ao basis        = "ao basis"
  functions       =    66
  atoms           =     8
  closed shells   =    17
  open shells     =     0
  charge          =   0.00
  wavefunction    = RHF 
  input vectors   = ./disilane.movecs
  output vectors  = ./disilane.movecs
  use symmetry    = T
  symmetry adapt  = T


 Summary of "ao basis" -> "ao basis" (spherical)
 ------------------------------------------------------------------------------
       Tag                 Description            Shells   Functions and Types
 ---------------- ------------------------------  ------  ---------------------
 H                          cc-pvdz                  3        5   2s1p
 Si                         cc-pvdz                  8       18   4s3p1d


      Symmetry analysis of basis
      --------------------------

        a1g        12
        a1u         1
        a2g         1
        a2u        12
        eg         20
        eu         20


  The SCF is already converged 

         Total SCF energy =   -581.339155244100

                   NWChem MP2 Semi-direct Energy/Gradient Module
                   ---------------------------------------------


                                  disilane, Si2H6


  Basis functions       =     66
  Molecular orbitals    =     66
  Frozen core           =     10
  Frozen virtuals       =      0
  Active alpha occupied =      7
  Active beta occupied  =      7
  Active alpha virtual  =     49
  Active beta virtual   =     49
  Use MO symmetry       = F
  Use skeleton AO sym   = T

  AO/Fock/Back tols     =   1.0D-09  1.0D-09  1.0D-09

 GA uses MA = F    GA memory limited = T

 Available: 
  local mem=  2.62D+07
 global mem=  2.62D+07
 local disk=  1.26D+09
   1 passes of   7:        2891541                      16497                    271157.

 Semi-direct pass number   1 of   1  for RHF alpha+beta  at        5.2s
Node 0 wrote      1.6 Mb in      0.0 s     Agg I/O rate:  3033.5 Mb/s
 Done moints_semi at        8.3s
 Done maket at        8.3s
 Done pijab at        8.3s
 Done wijab at        8.3s
 Done lai at        8.4s
 Done nonsep at       11.8s
 Done multipass loop at       11.8s


          -------------------------------------------
          SCF energy                -581.339155244100
          Correlation energy          -0.214183288490
          Singlet pairs               -0.171230539019
          Triplet pairs               -0.042952749471
          Total MP2 energy          -581.553338532590
          -------------------------------------------

                                NWChem CPHF Module
                                ------------------


    scftype = RHF 
    nclosed =   17
      nopen =    0
  variables =      833
  tolerance =   1.0D-04
  max. iter =  100


 Integral file          = ./disilane.aoints.0
 Record size in doubles =  65536        No. of integs per rec  =  43688
 Max. records in memory =      4        Max. records in file   =  18323
 No. of bits per label  =      8        No. of bits per value  =     64


 #quartets = 2.966D+04 #integrals = 3.567D+05 #direct =  0.0% #cached =100.0%


File balance: exchanges=     0  moved=     0  time=   0.0


            ----- linear solve (tol: 1.0E-04 prod-acc: 1.8E-10) -----

               iter nbas    rnorm     rnorm-scal   ratio     time
               ---- ---- ----------- ----------- --------- -------
                  1    1  6.9413E-03  1.3015E-01    0.0000    13.0
                  2    2  1.7742E-03  3.3266E-02    0.2556    13.0
                  3    3  2.4091E-04  4.5170E-03    0.1358    13.1
                  4    4  3.7584E-05  7.0471E-04    0.1560    13.1
                  5    5  5.3029E-06  9.9429E-05    0.1411    13.1

 CPHF converged to   9.9D-05 in    5 iters


 Parallel integral file used      11 records with       0 large values

                Dipole Moments (a.u.)
                --------------
         Nuclear       SCF       SCF+MP2
       ----------- ----------- -----------
 X       0.000000    0.000000    0.000000
 Y       0.000000    0.000000    0.000000
 Z       0.000000    0.000000    0.000000


 MP2 RHF      natural orbital occupation numbers


              1      
    1    2.0000
    2    2.0000
    3    2.0000
    4    2.0000
    5    2.0000
    6    2.0000
    7    2.0000
    8    2.0000
    9    2.0000
   10    2.0000
   11    1.9815
   12    1.9778
   13    1.9720
   14    1.9720
   15    1.9714
   16    1.9714
   17    1.9603
   18    0.0172
   19    0.0172
   20    0.0162
   21    0.0126
   22    0.0126
   23    0.0110
   24    0.0110
   25    0.0086
   26    0.0082
   27    0.0082
   28    0.0067
   29    0.0067
   30    0.0063
   31    0.0063
   32    0.0045
   33    0.0045
   34    0.0038
   35    0.0037
   36    0.0023
   37    0.0023
   38    0.0023
   39    0.0021
   40    0.0021
   41    0.0019
   42    0.0019
   43    0.0016
   44    0.0016
   45    0.0016
   46    0.0010
   47    0.0010
   48    0.0007
   49    0.0007
   50    0.0006
   51    0.0006
   52    0.0006
   53    0.0005
   54    0.0005
   55    0.0005
   56    0.0004
   57    0.0004
   58    0.0004
   59    0.0004
   60    0.0001
   61    0.0001
   62    0.0001
   63    0.0001
   64    0.0001
   65    0.0001
   66    0.0001

  MP2 natural orbitals output to ./disilane.mp2nos

  Using symmetry


                         mp2 ENERGY GRADIENTS

    atom               coordinates                        gradient
                 x          y          z           x          y          z
   1 Si      0.000000   0.000000   2.232568    0.000000   0.000000  -0.000164
   2 Si      0.000000   0.000000  -2.232568    0.000000   0.000000   0.000164
   3 H       1.871418  -1.871418   3.202507    0.000443  -0.000443   0.000103
   4 H       0.684987   2.556405   3.202507    0.000162   0.000605   0.000103
   5 H      -2.556405  -0.684987   3.202507   -0.000605  -0.000162   0.000103
   6 H      -1.871418   1.871418  -3.202507   -0.000443   0.000443  -0.000103
   7 H       2.556405   0.684987  -3.202507    0.000605   0.000162  -0.000103
   8 H      -0.684987  -2.556405  -3.202507   -0.000162  -0.000605  -0.000103

                 ----------------------------------------
                 |  Time  |  1-e(secs)   |  2-e(secs)   |
                 ----------------------------------------
                 |  CPU   |       0.00   |       1.87   |
                 ----------------------------------------
                 |  WALL  |       0.00   |       1.91   |
                 ----------------------------------------
 -----------------------
 Performance information
 -----------------------

 Timer overhead =  4.00D-07 seconds/call

               Nr. of calls         CPU time (s)                 Wall time (s)                GFlops
             ---------------    -------------------     ------------------------------   -------------------
Name         Min   Avg   Max    Min     Avg     Max     Min     Avg     Max   Mx/calls   Min     Max     Sum
mp2: moin     1     1     1    3.1     3.1     3.1      3.1     3.1     3.1     3.1      0.0     0.0     0.0   
mp2: make     1     1     1   2.10E-2 2.55E-2 2.80E-2  3.13E-2 3.13E-2 3.14E-2 3.14E-2   0.0     0.0     0.0   
mp2: pija     1     1     1   5.00E-3 5.75E-3 6.00E-3  5.89E-3 5.90E-3 5.92E-3 5.92E-3   0.0     0.0     0.0   
mp2: wija     1     1     1   5.00E-3 5.75E-3 6.00E-3  6.11E-3 6.11E-3 6.12E-3 6.12E-3   0.0     0.0     0.0   
mp2: lai      1     1     1   9.10E-2 9.70E-2 9.90E-2  0.10    0.10    0.10    0.10      0.0     0.0     0.0   
mp2: back     1     1     1   2.20E-2 2.42E-2 2.50E-2  2.75E-2 2.75E-2 2.75E-2 2.75E-2   0.0     0.0     0.0   
mp2: nons     1     1     1    2.4     2.7     3.3      2.4     2.8     3.3     3.3      0.0     0.0     0.0   
mp2: laif     1     1     1    1.2     1.2     1.2      1.2     1.2     1.2     1.2      0.0     0.0     0.0   
mp2: cphf     1     1     1   0.66    0.69    0.74     0.80    0.80    0.80    0.80      0.0     0.0     0.0   
mp2: wijf     1     1     1    1.2     1.2     1.2      1.2     1.2     1.2     1.2      0.0     0.0     0.0   
mp2: sep      1     1     1    1.9     1.9     2.0      2.0     2.0     2.0     2.0      0.0     0.0     0.0   
mp2: tota     1     1     1    11.     12.     12.      12.     12.     12.     12.      0.0     0.0     0.0   

 The average no. of pstat calls per process was 1.20D+01
 with a timing overhead of 4.80D-06s


@ Step       Energy      Delta E   Gmax     Grms     Xrms     Xmax   Walltime
@ ---- ---------------- -------- -------- -------- -------- -------- --------
@    0    -581.55333853  0.0D+00  0.00062  0.00030  0.00000  0.00000     17.1
                                              ok       ok       ok  



                                Z-matrix (autoz)
                                -------- 

 Units are Angstrom for bonds and degrees for angles

      Type          Name      I     J     K     L     M      Value     Gradient
      ----------- --------  ----- ----- ----- ----- ----- ---------- ----------
    1 Stretch                  1     2                       2.36285    0.00014
    2 Stretch                  1     3                       1.49160    0.00062
    3 Stretch                  1     4                       1.49160    0.00062
    4 Stretch                  1     5                       1.49160    0.00062
    5 Stretch                  2     6                       1.49160    0.00062
    6 Stretch                  2     7                       1.49160    0.00062
    7 Stretch                  2     8                       1.49160    0.00062
    8 Bend                     1     2     6               110.12724   -0.00009
    9 Bend                     1     2     7               110.12724   -0.00009
   10 Bend                     1     2     8               110.12724   -0.00009
   11 Bend                     2     1     3               110.12724   -0.00009
   12 Bend                     2     1     4               110.12724   -0.00009
   13 Bend                     2     1     5               110.12724   -0.00009
   14 Bend                     3     1     4               108.80731    0.00009
   15 Bend                     3     1     5               108.80731    0.00009
   16 Bend                     4     1     5               108.80731    0.00009
   17 Bend                     6     2     7               108.80731    0.00009
   18 Bend                     6     2     8               108.80731    0.00009
   19 Bend                     7     2     8               108.80731    0.00009
   20 Torsion                  3     1     2     6         180.00000    0.00000
   21 Torsion                  3     1     2     7         -60.00000    0.00000
   22 Torsion                  3     1     2     8          60.00000    0.00000
   23 Torsion                  4     1     2     6         -60.00000    0.00000
   24 Torsion                  4     1     2     7          60.00000    0.00000
   25 Torsion                  4     1     2     8         180.00000    0.00000
   26 Torsion                  5     1     2     6          60.00000    0.00000
   27 Torsion                  5     1     2     7         180.00000    0.00000
   28 Torsion                  5     1     2     8         -60.00000    0.00000

                                 NWChem SCF Module
                                 -----------------


                                  disilane, Si2H6



  ao basis        = "ao basis"
  functions       =    66
  atoms           =     8
  closed shells   =    17
  open shells     =     0
  charge          =   0.00
  wavefunction    = RHF 
  input vectors   = ./disilane.movecs
  output vectors  = ./disilane.movecs
  use symmetry    = T
  symmetry adapt  = T


 Summary of "ao basis" -> "ao basis" (spherical)
 ------------------------------------------------------------------------------
       Tag                 Description            Shells   Functions and Types
 ---------------- ------------------------------  ------  ---------------------
 H                          cc-pvdz                  3        5   2s1p
 Si                         cc-pvdz                  8       18   4s3p1d


      Symmetry analysis of basis
      --------------------------

        a1g        12
        a1u         1
        a2g         1
        a2u        12
        eg         20
        eu         20


 Forming initial guess at      17.1s


 Loading old vectors from job with title :

disilane, Si2H6


      Symmetry analysis of molecular orbitals - initial
      -------------------------------------------------

  Numbering of irreducible representations: 

     1 a1g         2 a1u         3 a2g         4 a2u         5 eg      
     6 eu      

  Orbital symmetries:

     1 a1g         2 a2u         3 a1g         4 a2u         5 a1g     
     6 eu          7 eu          8 eg          9 eg         10 a2u     
    11 a1g        12 a2u        13 eu         14 eu         15 eg      
    16 eg         17 a1g        18 eu         19 eu         20 a2u     
    21 a1g        22 eg         23 eg         24 a2u        25 a1g     
    26 eu         27 eu      


 Starting SCF solution at      17.2s



 ----------------------------------------------
         Quadratically convergent ROHF

 Convergence threshold     :          1.000E-06
 Maximum no. of iterations :           30
 Final Fock-matrix accuracy:          1.000E-08
 ----------------------------------------------


 Integral file          = ./disilane.aoints.0
 Record size in doubles =  65536        No. of integs per rec  =  43688
 Max. records in memory =      4        Max. records in file   =  18323
 No. of bits per label  =      8        No. of bits per value  =     64


 #quartets = 2.966D+04 #integrals = 3.567D+05 #direct =  0.0% #cached =100.0%


File balance: exchanges=     0  moved=     0  time=   0.0


              iter       energy          gnorm     gmax       time
             ----- ------------------- --------- --------- --------
                 1     -581.3391666620  3.52D-03  1.08D-03     16.9
                 2     -581.3391679195  1.10D-05  2.74D-06     17.0
                 3     -581.3391679195  6.21D-08  2.35D-08     17.0


       Final RHF  results 
       ------------------ 

         Total SCF energy =   -581.339167919471
      One-electron energy =   -984.992046216058
      Two-electron energy =    313.473789755547
 Nuclear repulsion energy =     90.179088541040

        Time for solution =      0.7s



       Symmetry analysis of molecular orbitals - final
       -----------------------------------------------

  Numbering of irreducible representations: 

     1 a1g         2 a1u         3 a2g         4 a2u         5 eg      
     6 eu      

  Orbital symmetries:

     1 a1g         2 a2u         3 a1g         4 a2u         5 a1g     
     6 eu          7 eu          8 eg          9 eg         10 a2u     
    11 a1g        12 a2u        13 eu         14 eu         15 eg      
    16 eg         17 a1g        18 eu         19 eu         20 a2u     
    21 a1g        22 eg         23 eg         24 a2u        25 a1g     
    26 eu         27 eu      

             Final eigenvalues
             -----------------

              1      
    1  -68.7800
    2  -68.7800
    3   -6.1309
    4   -6.1308
    5   -4.2368
    6   -4.2367
    7   -4.2367
    8   -4.2366
    9   -4.2366
   10   -4.2362
   11   -0.7582
   12   -0.6803
   13   -0.4986
   14   -0.4986
   15   -0.4713
   16   -0.4713
   17   -0.4026
   18    0.1414
   19    0.1414
   20    0.1490
   21    0.1760
   22    0.1929
   23    0.1929
   24    0.2216
   25    0.3529
   26    0.4029
   27    0.4029

                       ROHF Final Molecular Orbital Analysis
                       -------------------------------------

 Vector    8  Occ=2.000000D+00  E=-4.236635D+00  Symmetry=eg
              MO Center= -2.2D-20, -7.2D-21,  3.2D-16, r^2= 1.5D+00
   Bfn.  Coefficient  Atom+Function         Bfn.  Coefficient  Atom+Function  
  ----- ------------  ---------------      ----- ------------  ---------------
     5      0.694451  1 Si px                23     -0.694451  2 Si px         

 Vector    9  Occ=2.000000D+00  E=-4.236635D+00  Symmetry=eg
              MO Center= -4.7D-21,  3.4D-21, -8.4D-17, r^2= 1.5D+00
   Bfn.  Coefficient  Atom+Function         Bfn.  Coefficient  Atom+Function  
  ----- ------------  ---------------      ----- ------------  ---------------
     6     -0.694451  1 Si py                24      0.694451  2 Si py         

 Vector   10  Occ=2.000000D+00  E=-4.236226D+00  Symmetry=a2u
              MO Center= -1.7D-21,  2.4D-21,  1.7D-16, r^2= 1.5D+00
   Bfn.  Coefficient  Atom+Function         Bfn.  Coefficient  Atom+Function  
  ----- ------------  ---------------      ----- ------------  ---------------
     7      0.707526  1 Si pz                25      0.707526  2 Si pz         

 Vector   11  Occ=2.000000D+00  E=-7.581897D-01  Symmetry=a1g
              MO Center=  7.8D-18,  2.1D-18, -5.5D-17, r^2= 3.2D+00
   Bfn.  Coefficient  Atom+Function         Bfn.  Coefficient  Atom+Function  
  ----- ------------  ---------------      ----- ------------  ---------------
     3      0.310916  1 Si s                 21      0.310916  2 Si s          
     4      0.181681  1 Si s                 22      0.181681  2 Si s          

 Vector   12  Occ=2.000000D+00  E=-6.802777D-01  Symmetry=a2u
              MO Center= -2.3D-17,  1.1D-17,  3.3D-16, r^2= 4.3D+00
   Bfn.  Coefficient  Atom+Function         Bfn.  Coefficient  Atom+Function  
  ----- ------------  ---------------      ----- ------------  ---------------
     3     -0.279747  1 Si s                 21      0.279747  2 Si s          
     4     -0.178595  1 Si s                 22      0.178595  2 Si s          

 Vector   13  Occ=2.000000D+00  E=-4.985608D-01  Symmetry=eu
              MO Center= -2.5D-17, -4.7D-17, -5.3D-17, r^2= 4.6D+00
   Bfn.  Coefficient  Atom+Function         Bfn.  Coefficient  Atom+Function  
  ----- ------------  ---------------      ----- ------------  ---------------
    57      0.236370  7 H  s                 47     -0.236370  5 H  s          
     8      0.231855  1 Si px                26      0.231855  2 Si px         
    37      0.181668  3 H  s                 52     -0.181668  6 H  s          

 Vector   14  Occ=2.000000D+00  E=-4.985608D-01  Symmetry=eu
              MO Center= -1.6D-17,  2.7D-17,  1.4D-16, r^2= 4.6D+00
   Bfn.  Coefficient  Atom+Function         Bfn.  Coefficient  Atom+Function  
  ----- ------------  ---------------      ----- ------------  ---------------
    42      0.241354  4 H  s                 62     -0.241354  8 H  s          
     9      0.231855  1 Si py                27      0.231855  2 Si py         
    52      0.168050  6 H  s                 37     -0.168050  3 H  s          

 Vector   15  Occ=2.000000D+00  E=-4.712847D-01  Symmetry=eg
              MO Center= -8.4D-16, -2.3D-15,  1.6D-15, r^2= 4.9D+00
   Bfn.  Coefficient  Atom+Function         Bfn.  Coefficient  Atom+Function  
  ----- ------------  ---------------      ----- ------------  ---------------
    47      0.238325  5 H  s                 57      0.238325  7 H  s          
    42     -0.212619  4 H  s                 62     -0.212619  8 H  s          
    26      0.173274  2 Si px                 8     -0.173274  1 Si px         
    48      0.154586  5 H  s                 58      0.154586  7 H  s          

 Vector   16  Occ=2.000000D+00  E=-4.712847D-01  Symmetry=eg
              MO Center= -8.2D-16, -2.4D-16,  1.3D-15, r^2= 4.9D+00
   Bfn.  Coefficient  Atom+Function         Bfn.  Coefficient  Atom+Function  
  ----- ------------  ---------------      ----- ------------  ---------------
    37      0.260353  3 H  s                 52      0.260353  6 H  s          
    27      0.173274  2 Si py                 9     -0.173274  1 Si py         
    38      0.168874  3 H  s                 53      0.168874  6 H  s          
    42     -0.152439  4 H  s                 62     -0.152439  8 H  s          

 Vector   17  Occ=2.000000D+00  E=-4.026023D-01  Symmetry=a1g
              MO Center= -9.2D-18,  5.3D-18,  6.2D-17, r^2= 3.0D+00
   Bfn.  Coefficient  Atom+Function         Bfn.  Coefficient  Atom+Function  
  ----- ------------  ---------------      ----- ------------  ---------------
    10      0.331741  1 Si pz                28     -0.331741  2 Si pz         
    13      0.194275  1 Si pz                31     -0.194275  2 Si pz         

 Vector   18  Occ=0.000000D+00  E= 1.414075D-01  Symmetry=eu
              MO Center= -1.3D-15, -1.8D-15,  1.9D-15, r^2= 4.6D+00
   Bfn.  Coefficient  Atom+Function         Bfn.  Coefficient  Atom+Function  
  ----- ------------  ---------------      ----- ------------  ---------------
    63      0.725492  8 H  s                 43     -0.725492  4 H  s          
    48      0.670625  5 H  s                 58     -0.670625  7 H  s          
    30      0.661743  2 Si py                12      0.661743  1 Si py         
    11      0.577396  1 Si px                29      0.577396  2 Si px         

 Vector   19  Occ=0.000000D+00  E= 1.414075D-01  Symmetry=eu
              MO Center=  2.2D-15,  1.1D-15, -1.5D-14, r^2= 4.6D+00
   Bfn.  Coefficient  Atom+Function         Bfn.  Coefficient  Atom+Function  
  ----- ------------  ---------------      ----- ------------  ---------------
    38      0.806049  3 H  s                 53     -0.806049  6 H  s          
    11     -0.661743  1 Si px                29     -0.661743  2 Si px         
    12      0.577396  1 Si py                30      0.577396  2 Si py         
    48     -0.450541  5 H  s                 58      0.450541  7 H  s          
    43     -0.355508  4 H  s                 63      0.355508  8 H  s          

 Vector   20  Occ=0.000000D+00  E= 1.489575D-01  Symmetry=a2u
              MO Center= -3.2D-17, -3.8D-17,  3.7D-16, r^2= 7.2D+00
   Bfn.  Coefficient  Atom+Function         Bfn.  Coefficient  Atom+Function  
  ----- ------------  ---------------      ----- ------------  ---------------
     4      1.444028  1 Si s                 22     -1.444028  2 Si s          
    13     -1.373483  1 Si pz                31     -1.373483  2 Si pz         

 Vector   21  Occ=0.000000D+00  E= 1.760443D-01  Symmetry=a1g
              MO Center= -4.0D-16, -6.5D-17, -4.8D-16, r^2= 7.0D+00
   Bfn.  Coefficient  Atom+Function         Bfn.  Coefficient  Atom+Function  
  ----- ------------  ---------------      ----- ------------  ---------------
    22      1.479900  2 Si s                  4      1.479900  1 Si s          
    58     -0.785577  7 H  s                 38     -0.785577  3 H  s          
    63     -0.785577  8 H  s                 43     -0.785577  4 H  s          
    53     -0.785577  6 H  s                 48     -0.785577  5 H  s          
    13      0.782591  1 Si pz                31     -0.782591  2 Si pz         

 Vector   22  Occ=0.000000D+00  E= 1.928665D-01  Symmetry=eg
              MO Center= -1.0D-14, -8.3D-15, -1.9D-15, r^2= 6.4D+00
   Bfn.  Coefficient  Atom+Function         Bfn.  Coefficient  Atom+Function  
  ----- ------------  ---------------      ----- ------------  ---------------
    29      1.252629  2 Si px                11     -1.252629  1 Si px         
    12     -1.183615  1 Si py                30      1.183615  2 Si py         
    48     -1.089705  5 H  s                 58     -1.089705  7 H  s          
    63      1.054634  8 H  s                 43      1.054634  4 H  s          

 Vector   23  Occ=0.000000D+00  E= 1.928665D-01  Symmetry=eg
              MO Center= -5.5D-16,  2.9D-15,  1.1D-14, r^2= 6.4D+00
   Bfn.  Coefficient  Atom+Function         Bfn.  Coefficient  Atom+Function  
  ----- ------------  ---------------      ----- ------------  ---------------
    12      1.252629  1 Si py                30     -1.252629  2 Si py         
    38      1.238034  3 H  s                 53      1.238034  6 H  s          
    11     -1.183615  1 Si px                29      1.183615  2 Si px         
    43     -0.649390  4 H  s                 63     -0.649390  8 H  s          
    48     -0.588645  5 H  s                 58     -0.588645  7 H  s          

 Vector   24  Occ=0.000000D+00  E= 2.216355D-01  Symmetry=a2u
              MO Center=  1.2D-14,  1.3D-14,  2.2D-15, r^2= 7.7D+00
   Bfn.  Coefficient  Atom+Function         Bfn.  Coefficient  Atom+Function  
  ----- ------------  ---------------      ----- ------------  ---------------
     4      1.872563  1 Si s                 22     -1.872563  2 Si s          
    43     -0.965353  4 H  s                 38     -0.965353  3 H  s          
    53      0.965353  6 H  s                 58      0.965353  7 H  s          
    63      0.965353  8 H  s                 48     -0.965353  5 H  s          
    13      0.615504  1 Si pz                31      0.615504  2 Si pz         

 Vector   25  Occ=0.000000D+00  E= 3.529298D-01  Symmetry=a1g
              MO Center=  8.4D-15, -2.6D-16,  1.0D-14, r^2= 7.8D+00
   Bfn.  Coefficient  Atom+Function         Bfn.  Coefficient  Atom+Function  
  ----- ------------  ---------------      ----- ------------  ---------------
    13      0.518077  1 Si pz                31     -0.518077  2 Si pz         
    10     -0.513112  1 Si pz                28      0.513112  2 Si pz         
    21     -0.399034  2 Si s                  3     -0.399034  1 Si s          
    38      0.310346  3 H  s                 58      0.310346  7 H  s          
    43      0.310346  4 H  s                 63      0.310346  8 H  s          

 Vector   26  Occ=0.000000D+00  E= 4.029273D-01  Symmetry=eu
              MO Center= -5.2D-15, -1.7D-15, -2.8D-16, r^2= 6.6D+00
   Bfn.  Coefficient  Atom+Function         Bfn.  Coefficient  Atom+Function  
  ----- ------------  ---------------      ----- ------------  ---------------
     8      0.632676  1 Si px                26      0.632676  2 Si px         
    48      0.592028  5 H  s                 58     -0.592028  7 H  s          
    63      0.341608  8 H  s                 43     -0.341608  4 H  s          
    11     -0.250622  1 Si px                29     -0.250622  2 Si px         
    53      0.250420  6 H  s                 38     -0.250420  3 H  s          

 Vector   27  Occ=0.000000D+00  E= 4.029273D-01  Symmetry=eu
              MO Center= -1.3D-15,  1.5D-15,  6.7D-15, r^2= 6.6D+00
   Bfn.  Coefficient  Atom+Function         Bfn.  Coefficient  Atom+Function  
  ----- ------------  ---------------      ----- ------------  ---------------
     9      0.632676  1 Si py                27      0.632676  2 Si py         
    53     -0.539035  6 H  s                 38      0.539035  3 H  s          
    63      0.486387  8 H  s                 43     -0.486387  4 H  s          
    12     -0.250622  1 Si py                30     -0.250622  2 Si py         
    26     -0.231299  2 Si px                 8     -0.231299  1 Si px         

 Vector   28  Occ=0.000000D+00  E= 4.358089D-01  Symmetry=eg
              MO Center= -2.3D-14,  2.3D-14,  4.0D-15, r^2= 7.2D+00
   Bfn.  Coefficient  Atom+Function         Bfn.  Coefficient  Atom+Function  
  ----- ------------  ---------------      ----- ------------  ---------------
    43      0.564300  4 H  s                 63      0.564300  8 H  s          
    27      0.554834  2 Si py                 9     -0.554834  1 Si py         
    48     -0.427253  5 H  s                 58     -0.427253  7 H  s          
    30     -0.381178  2 Si py                12      0.381178  1 Si py         
     8     -0.340496  1 Si px                26      0.340496  2 Si px         

 Vector   29  Occ=0.000000D+00  E= 4.358089D-01  Symmetry=eg
              MO Center=  3.8D-14,  5.6D-15, -2.1D-14, r^2= 7.2D+00
   Bfn.  Coefficient  Atom+Function         Bfn.  Coefficient  Atom+Function  
  ----- ------------  ---------------      ----- ------------  ---------------
    53      0.572473  6 H  s                 38      0.572473  3 H  s          
     8     -0.554834  1 Si px                26      0.554834  2 Si px         
    58     -0.404923  7 H  s                 48     -0.404923  5 H  s          
    11      0.381178  1 Si px                29     -0.381178  2 Si px         
    27     -0.340496  2 Si py                 9      0.340496  1 Si py         

 Vector   30  Occ=0.000000D+00  E= 4.634723D-01  Symmetry=eu
              MO Center=  7.9D-16, -4.9D-14, -4.2D-14, r^2= 4.0D+00
   Bfn.  Coefficient  Atom+Function         Bfn.  Coefficient  Atom+Function  
  ----- ------------  ---------------      ----- ------------  ---------------
    63      0.556035  8 H  s                 43     -0.556035  4 H  s          
    48      0.482638  5 H  s                 58     -0.482638  7 H  s          
    33     -0.466569  2 Si d -1              15      0.466569  1 Si d -1       
    12      0.406040  1 Si py                30      0.406040  2 Si py         
    35      0.364812  2 Si d  1              17     -0.364812  1 Si d  1       

 Vector   31  Occ=0.000000D+00  E= 4.634723D-01  Symmetry=eu
              MO Center= -1.3D-14,  2.0D-14, -3.4D-14, r^2= 4.0D+00
   Bfn.  Coefficient  Atom+Function         Bfn.  Coefficient  Atom+Function  
  ----- ------------  ---------------      ----- ------------  ---------------
    38      0.599678  3 H  s                 53     -0.599678  6 H  s          
    35     -0.466569  2 Si d  1              17      0.466569  1 Si d  1       
    11     -0.406040  1 Si px                29     -0.406040  2 Si px         
    33     -0.364812  2 Si d -1              15      0.364812  1 Si d -1       
    48     -0.363403  5 H  s                 58      0.363403  7 H  s          

 Vector   32  Occ=0.000000D+00  E= 4.801117D-01  Symmetry=a2u
              MO Center=  2.0D-15,  2.1D-14, -1.3D-14, r^2= 6.3D+00
   Bfn.  Coefficient  Atom+Function         Bfn.  Coefficient  Atom+Function  
  ----- ------------  ---------------      ----- ------------  ---------------
    31      1.390704  2 Si pz                13      1.390704  1 Si pz         
    28     -0.744499  2 Si pz                10     -0.744499  1 Si pz         
     4     -0.529782  1 Si s                 22      0.529782  2 Si s          
    16     -0.295629  1 Si d  0              34      0.295629  2 Si d  0       
    52      0.180567  6 H  s                 42     -0.180567  4 H  s          

 Vector   33  Occ=0.000000D+00  E= 5.245273D-01  Symmetry=a1g
              MO Center=  2.4D-15,  1.5D-15, -9.0D-16, r^2= 4.7D+00
   Bfn.  Coefficient  Atom+Function         Bfn.  Coefficient  Atom+Function  
  ----- ------------  ---------------      ----- ------------  ---------------
     4      2.582963  1 Si s                 22      2.582963  2 Si s          
    21     -1.229177  2 Si s                  3     -1.229177  1 Si s          
     2     -0.835787  1 Si s                 20     -0.835787  2 Si s          
    43     -0.634383  4 H  s                 63     -0.634383  8 H  s          
    58     -0.634383  7 H  s                 48     -0.634383  5 H  s          


 center of mass
 --------------
 x =   0.00000000 y =   0.00000000 z =   0.00000000

 moments of inertia (a.u.)
 ------------------
         361.910755154774           0.000000000000           0.000000000000
           0.000000000000         361.910755154774           0.000000000000
           0.000000000000           0.000000000000          42.220121851221

  Mulliken analysis of the total density
  --------------------------------------

    Atom       Charge   Shell Charges
 -----------   ------   -------------------------------------------------------
    1 Si  14    13.69   2.00  2.01  0.73  0.45  6.00  1.49  0.80  0.21
    2 Si  14    13.69   2.00  2.01  0.73  0.45  6.00  1.49  0.80  0.21
    3 H    1     1.10   0.72  0.37  0.01
    4 H    1     1.10   0.72  0.37  0.01
    5 H    1     1.10   0.72  0.37  0.01
    6 H    1     1.10   0.72  0.37  0.01
    7 H    1     1.10   0.72  0.37  0.01
    8 H    1     1.10   0.72  0.37  0.01

       Multipole analysis of the density wrt the origin
       ------------------------------------------------

     L   x y z        total         open         nuclear
     -   - - -        -----         ----         -------
     0   0 0 0      0.000000      0.000000     34.000000

     1   1 0 0      0.000000      0.000000      0.000000
     1   0 1 0      0.000000      0.000000      0.000000
     1   0 0 1      0.000000      0.000000      0.000000

     2   2 0 0    -23.840887      0.000000     20.946157
     2   1 1 0      0.000000      0.000000      0.000000
     2   1 0 1      0.000000      0.000000      0.000000
     2   0 2 0    -23.840887      0.000000     20.946157
     2   0 1 1      0.000000      0.000000      0.000000
     2   0 0 2    -24.777191      0.000000    201.073355


 Parallel integral file used      11 records with       0 large values

                   NWChem MP2 Semi-direct Energy/Gradient Module
                   ---------------------------------------------


                                  disilane, Si2H6


  Basis functions       =     66
  Molecular orbitals    =     66
  Frozen core           =     10
  Frozen virtuals       =      0
  Active alpha occupied =      7
  Active beta occupied  =      7
  Active alpha virtual  =     49
  Active beta virtual   =     49
  Use MO symmetry       = F
  Use skeleton AO sym   = T

  AO/Fock/Back tols     =   1.0D-09  1.0D-09  1.0D-09

 GA uses MA = F    GA memory limited = T

 Available: 
  local mem=  2.62D+07
 global mem=  2.62D+07
 local disk=  1.26D+09
   1 passes of   7:         540431                      10968                    207482.

 Semi-direct pass number   1 of   1  for RHF alpha+beta  at       18.1s
Node 0 wrote      1.6 Mb in      0.0 s     Agg I/O rate:  3776.8 Mb/s
 Done moints_semi at       21.2s
 Done maket at       21.3s
 Done multipass loop at       21.3s


          -------------------------------------------
          SCF energy                -581.339167919471
          Correlation energy          -0.214177952819
          Singlet pairs               -0.171216523437
          Triplet pairs               -0.042961429382
          Total MP2 energy          -581.553345872290
          -------------------------------------------

 -----------------------
 Performance information
 -----------------------

 Timer overhead =  5.00D-07 seconds/call

               Nr. of calls         CPU time (s)                 Wall time (s)                GFlops
             ---------------    -------------------     ------------------------------   -------------------
Name         Min   Avg   Max    Min     Avg     Max     Min     Avg     Max   Mx/calls   Min     Max     Sum
mp2: moin     1     1     1    3.1     3.1     3.2      3.2     3.2     3.2     3.2      0.0     0.0     0.0   
mp2: make     1     1     1   2.00E-2 2.35E-2 2.50E-2  3.02E-2 3.02E-2 3.02E-2 3.02E-2   0.0     0.0     0.0   
mp2: tota     1     1     1    3.2     3.2     3.2      3.3     3.3     3.3     3.3      0.0     0.0     0.0   

 The average no. of pstat calls per process was 3.00D+00
 with a timing overhead of 1.50D-06s

 Line search: 
     step= 1.00 grad=-1.5D-05 hess= 7.3D-06 energy=   -581.553346 mode=accept  
 new step= 1.00                   predicted energy=   -581.553346

          --------
          Step   1
          --------


                         Geometry "geometry" -> "geometry"
                         ---------------------------------

 Output coordinates in angstroms (scale by  1.889725989 to convert to a.u.)

  No.       Tag          Charge          X              Y              Z
 ---- ---------------- ---------- -------------- -------------- --------------
    1 Si                  14.0000     0.00000000     0.00000000     1.18105629
    2 Si                  14.0000     0.00000000     0.00000000    -1.18105629
    3 H                    1.0000     0.98873002    -0.98873002     1.69554572
    4 H                    1.0000     0.36190030     1.35063032     1.69554572
    5 H                    1.0000    -1.35063032    -0.36190030     1.69554572
    6 H                    1.0000    -0.98873002     0.98873002    -1.69554572
    7 H                    1.0000     1.35063032     0.36190030    -1.69554572
    8 H                    1.0000    -0.36190030    -1.35063032    -1.69554572

      Atomic Mass 
      ----------- 

      Si                27.976930
      H                  1.007825


 Effective nuclear repulsion energy (a.u.)      90.1790885410

            Nuclear Dipole moment (a.u.) 
            ----------------------------
        X                 Y               Z
 ---------------- ---------------- ----------------
     0.0000000000     0.0000000000     0.0000000000

      Symmetry information
      --------------------

 Group name             D3d       
 Group number             33
 Group order              12
 No. of unique centers     2

      Symmetry unique atoms

     1    3

                                 NWChem SCF Module
                                 -----------------


                                  disilane, Si2H6



  ao basis        = "ao basis"
  functions       =    66
  atoms           =     8
  closed shells   =    17
  open shells     =     0
  charge          =   0.00
  wavefunction    = RHF 
  input vectors   = ./disilane.movecs
  output vectors  = ./disilane.movecs
  use symmetry    = T
  symmetry adapt  = T


 Summary of "ao basis" -> "ao basis" (spherical)
 ------------------------------------------------------------------------------
       Tag                 Description            Shells   Functions and Types
 ---------------- ------------------------------  ------  ---------------------
 H                          cc-pvdz                  3        5   2s1p
 Si                         cc-pvdz                  8       18   4s3p1d


      Symmetry analysis of basis
      --------------------------

        a1g        12
        a1u         1
        a2g         1
        a2u        12
        eg         20
        eu         20


  The SCF is already converged 

         Total SCF energy =   -581.339167919471

                   NWChem MP2 Semi-direct Energy/Gradient Module
                   ---------------------------------------------


                                  disilane, Si2H6


  Basis functions       =     66
  Molecular orbitals    =     66
  Frozen core           =     10
  Frozen virtuals       =      0
  Active alpha occupied =      7
  Active beta occupied  =      7
[...]
   12    1.9778
   13    1.9720
   14    1.9720
   15    1.9714
   16    1.9714
   17    1.9604
   18    0.0172
   19    0.0172
   20    0.0162
   21    0.0126
   22    0.0125
   23    0.0109
   24    0.0109
   25    0.0086
   26    0.0082
   27    0.0082
   28    0.0067
   29    0.0067
   30    0.0062
   31    0.0062
   32    0.0045
   33    0.0045
   34    0.0038
   35    0.0037
   36    0.0023
   37    0.0023
   38    0.0023
   39    0.0021
   40    0.0021
   41    0.0019
   42    0.0019
   43    0.0016
   44    0.0016
   45    0.0016
   46    0.0010
   47    0.0010
   48    0.0007
   49    0.0007
   50    0.0006
   51    0.0006
   52    0.0006
   53    0.0005
   54    0.0005
   55    0.0005
   56    0.0004
   57    0.0004
   58    0.0004
   59    0.0004
   60    0.0001
   61    0.0001
   62    0.0001
   63    0.0001
   64    0.0001
   65    0.0001
   66    0.0001

  MP2 natural orbitals output to ./disilane.mp2nos

  Using symmetry


                         mp2 ENERGY GRADIENTS

    atom               coordinates                        gradient
                 x          y          z           x          y          z
   1 Si      0.000000   0.000000   2.231845    0.000000   0.000000   0.000014
   2 Si      0.000000   0.000000  -2.231845    0.000000   0.000000  -0.000014
   3 H       1.868429  -1.868429   3.204097   -0.000001   0.000001  -0.000001
   4 H       0.683892   2.552321   3.204097    0.000000  -0.000001  -0.000001
   5 H      -2.552321  -0.683892   3.204097    0.000001   0.000000  -0.000001
   6 H      -1.868429   1.868429  -3.204097    0.000001  -0.000001   0.000001
   7 H       2.552321   0.683892  -3.204097   -0.000001   0.000000   0.000001
   8 H      -0.683892  -2.552321  -3.204097    0.000000   0.000001   0.000001

                 ----------------------------------------
                 |  Time  |  1-e(secs)   |  2-e(secs)   |
                 ----------------------------------------
                 |  CPU   |       0.00   |       1.91   |
                 ----------------------------------------
                 |  WALL  |       0.00   |       1.91   |
                 ----------------------------------------
 -----------------------
 Performance information
 -----------------------

 Timer overhead =  5.00D-07 seconds/call

               Nr. of calls         CPU time (s)                 Wall time (s)                GFlops
             ---------------    -------------------     ------------------------------   -------------------
Name         Min   Avg   Max    Min     Avg     Max     Min     Avg     Max   Mx/calls   Min     Max     Sum
mp2: moin     1     1     1    3.1     3.1     3.1      3.1     3.1     3.1     3.1      0.0     0.0     0.0   
mp2: make     1     1     1   2.20E-2 2.50E-2 2.80E-2  3.20E-2 3.20E-2 3.20E-2 3.20E-2   0.0     0.0     0.0   
mp2: pija     1     1     1   5.00E-3 5.75E-3 6.00E-3  5.81E-3 5.96E-3 6.01E-3 6.01E-3   0.0     0.0     0.0   
mp2: wija     1     1     1   6.00E-3 9.50E-3 1.10E-2  1.08E-2 1.09E-2 1.09E-2 1.09E-2   0.0     0.0     0.0   
mp2: lai      1     1     1   9.10E-2 9.60E-2 9.80E-2  9.77E-2 9.78E-2 9.78E-2 9.78E-2   0.0     0.0     0.0   
mp2: back     1     1     1   2.50E-2 2.50E-2 2.50E-2  2.75E-2 2.75E-2 2.75E-2 2.75E-2   0.0     0.0     0.0   
mp2: nons     1     1     1    2.4     2.7     3.3      2.4     2.8     3.3     3.3      0.0     0.0     0.0   
mp2: laif     1     1     1    1.2     1.2     1.2      1.2     1.2     1.2     1.2      0.0     0.0     0.0   
mp2: cphf     1     1     1   0.66    0.70    0.74     0.80    0.80    0.80    0.80      0.0     0.0     0.0   
mp2: wijf     1     1     1    1.2     1.2     1.2      1.3     1.3     1.3     1.3      0.0     0.0     0.0   
mp2: sep      1     1     1    1.9     1.9     2.0      2.0     2.0     2.0     2.0      0.0     0.0     0.0   
mp2: tota     1     1     1    12.     12.     12.      12.     12.     12.     12.      0.0     0.0     0.0   

 The average no. of pstat calls per process was 1.20D+01
 with a timing overhead of 6.00D-06s


  Step       Energy      Delta E   Gmax     Grms     Xrms     Xmax   Walltime
  ---- ---------------- -------- -------- -------- -------- -------- --------
@    2    -581.55334588 -2.9D-09  0.00001  0.00000  0.00001  0.00003     49.6
                                     ok       ok       ok       ok  



                                Z-matrix (autoz)
                                -------- 

 Units are Angstrom for bonds and degrees for angles

      Type          Name      I     J     K     L     M      Value     Gradient
      ----------- --------  ----- ----- ----- ----- ----- ---------- ----------
    1 Stretch                  1     2                       2.36208    0.00001
    2 Stretch                  1     3                       1.48993    0.00000
    3 Stretch                  1     4                       1.48993    0.00000
    4 Stretch                  1     5                       1.48993    0.00000
    5 Stretch                  2     6                       1.48993    0.00000
    6 Stretch                  2     7                       1.48993    0.00000
    7 Stretch                  2     8                       1.48993    0.00000
    8 Bend                     1     2     6               110.20102    0.00000
    9 Bend                     1     2     7               110.20102    0.00000
   10 Bend                     1     2     8               110.20102    0.00000
   11 Bend                     2     1     3               110.20102    0.00000
   12 Bend                     2     1     4               110.20102    0.00000
   13 Bend                     2     1     5               110.20102    0.00000
   14 Bend                     3     1     4               108.73167    0.00000
   15 Bend                     3     1     5               108.73167    0.00000
   16 Bend                     4     1     5               108.73167    0.00000
   17 Bend                     6     2     7               108.73167    0.00000
   18 Bend                     6     2     8               108.73167    0.00000
   19 Bend                     7     2     8               108.73167    0.00000
   20 Torsion                  3     1     2     6         180.00000    0.00000
   21 Torsion                  3     1     2     7         -60.00000    0.00000
   22 Torsion                  3     1     2     8          60.00000    0.00000
   23 Torsion                  4     1     2     6         -60.00000    0.00000
   24 Torsion                  4     1     2     7          60.00000    0.00000
   25 Torsion                  4     1     2     8         180.00000    0.00000
   26 Torsion                  5     1     2     6          60.00000    0.00000
   27 Torsion                  5     1     2     7        -180.00000    0.00000
   28 Torsion                  5     1     2     8         -60.00000    0.00000


      ----------------------
      Optimization converged
      ----------------------


  Step       Energy      Delta E   Gmax     Grms     Xrms     Xmax   Walltime
  ---- ---------------- -------- -------- -------- -------- -------- --------
@    2    -581.55334588 -2.9D-09  0.00001  0.00000  0.00001  0.00003     49.6
                                     ok       ok       ok       ok  



                                Z-matrix (autoz)
                                -------- 

 Units are Angstrom for bonds and degrees for angles

      Type          Name      I     J     K     L     M      Value     Gradient
      ----------- --------  ----- ----- ----- ----- ----- ---------- ----------
    1 Stretch                  1     2                       2.36208    0.00001
    2 Stretch                  1     3                       1.48993    0.00000
    3 Stretch                  1     4                       1.48993    0.00000
    4 Stretch                  1     5                       1.48993    0.00000
    5 Stretch                  2     6                       1.48993    0.00000
    6 Stretch                  2     7                       1.48993    0.00000
    7 Stretch                  2     8                       1.48993    0.00000
    8 Bend                     1     2     6               110.20102    0.00000
    9 Bend                     1     2     7               110.20102    0.00000
   10 Bend                     1     2     8               110.20102    0.00000
   11 Bend                     2     1     3               110.20102    0.00000
   12 Bend                     2     1     4               110.20102    0.00000
   13 Bend                     2     1     5               110.20102    0.00000
   14 Bend                     3     1     4               108.73167    0.00000
   15 Bend                     3     1     5               108.73167    0.00000
   16 Bend                     4     1     5               108.73167    0.00000
   17 Bend                     6     2     7               108.73167    0.00000
   18 Bend                     6     2     8               108.73167    0.00000
   19 Bend                     7     2     8               108.73167    0.00000
   20 Torsion                  3     1     2     6         180.00000    0.00000
   21 Torsion                  3     1     2     7         -60.00000    0.00000
   22 Torsion                  3     1     2     8          60.00000    0.00000
   23 Torsion                  4     1     2     6         -60.00000    0.00000
   24 Torsion                  4     1     2     7          60.00000    0.00000
   25 Torsion                  4     1     2     8         180.00000    0.00000
   26 Torsion                  5     1     2     6          60.00000    0.00000
   27 Torsion                  5     1     2     7        -180.00000    0.00000
   28 Torsion                  5     1     2     8         -60.00000    0.00000



                         Geometry "geometry" -> "geometry"
                         ---------------------------------

 Output coordinates in angstroms (scale by  1.889725989 to convert to a.u.)

  No.       Tag          Charge          X              Y              Z
 ---- ---------------- ---------- -------------- -------------- --------------
    1 Si                  14.0000     0.00000000     0.00000000     1.18104177
    2 Si                  14.0000     0.00000000     0.00000000    -1.18104177
    3 H                    1.0000     0.98873008    -0.98873008     1.69553512
    4 H                    1.0000     0.36190033     1.35063041     1.69553512
    5 H                    1.0000    -1.35063041    -0.36190033     1.69553512
    6 H                    1.0000    -0.98873008     0.98873008    -1.69553512
    7 H                    1.0000     1.35063041     0.36190033    -1.69553512
    8 H                    1.0000    -0.36190033    -1.35063041    -1.69553512

      Atomic Mass 
      ----------- 

      Si                27.976930
      H                  1.007825


 Effective nuclear repulsion energy (a.u.)      90.1797033725

            Nuclear Dipole moment (a.u.) 
            ----------------------------
        X                 Y               Z
 ---------------- ---------------- ----------------
     0.0000000000     0.0000000000     0.0000000000

      Symmetry information
      --------------------

 Group name             D3d       
 Group number             33
 Group order              12
 No. of unique centers     2

      Symmetry unique atoms

     1    3


                Final and change from initial internal coordinates
                --------------------------------------------------



                                Z-matrix (autoz)
                                -------- 

 Units are Angstrom for bonds and degrees for angles

      Type          Name      I     J     K     L     M      Value       Change
      ----------- --------  ----- ----- ----- ----- ----- ---------- ----------
    1 Stretch                  1     2                       2.36208   -0.00076
    2 Stretch                  1     3                       1.48993   -0.00168
    3 Stretch                  1     4                       1.48993   -0.00168
    4 Stretch                  1     5                       1.48993   -0.00168
    5 Stretch                  2     6                       1.48993   -0.00168
    6 Stretch                  2     7                       1.48993   -0.00168
    7 Stretch                  2     8                       1.48993   -0.00168
    8 Bend                     1     2     6               110.20102    0.07378
    9 Bend                     1     2     7               110.20102    0.07378
   10 Bend                     1     2     8               110.20102    0.07378
   11 Bend                     2     1     3               110.20102    0.07378
   12 Bend                     2     1     4               110.20102    0.07378
   13 Bend                     2     1     5               110.20102    0.07378
   14 Bend                     3     1     4               108.73167   -0.07564
   15 Bend                     3     1     5               108.73167   -0.07564
   16 Bend                     4     1     5               108.73167   -0.07564
   17 Bend                     6     2     7               108.73167   -0.07564
   18 Bend                     6     2     8               108.73167   -0.07564
   19 Bend                     7     2     8               108.73167   -0.07564
   20 Torsion                  3     1     2     6         180.00000    0.00000
   21 Torsion                  3     1     2     7         -60.00000    0.00000
   22 Torsion                  3     1     2     8          60.00000    0.00000
   23 Torsion                  4     1     2     6         -60.00000    0.00000
   24 Torsion                  4     1     2     7          60.00000    0.00000
   25 Torsion                  4     1     2     8         180.00000    0.00000
   26 Torsion                  5     1     2     6          60.00000    0.00000
   27 Torsion                  5     1     2     7        -180.00000    0.00000
   28 Torsion                  5     1     2     8         -60.00000    0.00000

 ==============================================================================
                                internuclear distances
 ------------------------------------------------------------------------------
       center one      |      center two      | atomic units |  angstroms
 ------------------------------------------------------------------------------
    2 Si               |   1 Si               |     4.46369  |     2.36208
    3 H                |   1 Si               |     2.81555  |     1.48993
    4 H                |   1 Si               |     2.81555  |     1.48993
    5 H                |   1 Si               |     2.81555  |     1.48993
    6 H                |   2 Si               |     2.81555  |     1.48993
    7 H                |   2 Si               |     2.81555  |     1.48993
    8 H                |   2 Si               |     2.81555  |     1.48993
 ------------------------------------------------------------------------------
                         number of included internuclear distances:          7
 ==============================================================================



 ==============================================================================
                                 internuclear angles
 ------------------------------------------------------------------------------
        center 1       |       center 2       |       center 3       |  degrees
 ------------------------------------------------------------------------------
    2 Si               |   1 Si               |   3 H                |   110.20
    2 Si               |   1 Si               |   4 H                |   110.20
    2 Si               |   1 Si               |   5 H                |   110.20
    3 H                |   1 Si               |   4 H                |   108.73
    3 H                |   1 Si               |   5 H                |   108.73
    4 H                |   1 Si               |   5 H                |   108.73
    1 Si               |   2 Si               |   6 H                |   110.20
    1 Si               |   2 Si               |   7 H                |   110.20
    1 Si               |   2 Si               |   8 H                |   110.20
    6 H                |   2 Si               |   7 H                |   108.73
    6 H                |   2 Si               |   8 H                |   108.73
    7 H                |   2 Si               |   8 H                |   108.73
 ------------------------------------------------------------------------------
                            number of included internuclear angles:         12
 ==============================================================================




 Task  times  cpu:       42.5s     wall:       44.6s
 Summary of allocated global arrays
-----------------------------------
  No active global arrays



                         GA Statistics for process    0
                         ------------------------------

       create   destroy   get      put      acc     scatter   gather  read&inc
calls: 1384     1384     8.91e+04 5.33e+04 7.40e+04    0        0     2429     
number of processes/call 1.10e+00 1.41e+00 1.01e+00 0.00e+00 0.00e+00
bytes total:             3.98e+07 2.39e+07 1.33e+07 0.00e+00 0.00e+00 1.94e+04
bytes remote:            1.30e+07 1.20e+07 7.34e+06 0.00e+00 0.00e+00 0.00e+00
Max memory consumed for GA by this process: 776456 bytes
MA_summarize_allocated_blocks: starting scan ...
MA_summarize_allocated_blocks: scan completed: 0 heap blocks, 0 stack blocks
MA usage statistics:

	allocation statistics:
					      heap	     stack
					      ----	     -----
	current number of blocks	         0	         0
	maximum number of blocks	        26	        36
	current total bytes		         0	         0
	maximum total bytes		   2136856	  24438496
	maximum total K-bytes		      2137	     24439
	maximum total M-bytes		         3	        25


                                NWChem Input Module
                                -------------------





                                     CITATION
                                     --------
                Please cite the following reference when publishing
                           results obtained with NWChem:

                 M. Valiev, E.J. Bylaska, N. Govind, K. Kowalski,
              T.P. Straatsma, H.J.J. van Dam, D. Wang, J. Nieplocha,
                        E. Apra, T.L. Windus, W.A. de Jong
                 "NWChem: a comprehensive and scalable open-source
                  solution for large scale molecular simulations"
                      Comput. Phys. Commun. 181, 1477 (2010)
                           doi:10.1016/j.cpc.2010.04.018

                              AUTHORS & CONTRIBUTORS
                              ----------------------
      E. J. Bylaska, W. A. de Jong, N. Govind, K. Kowalski, T. P. Straatsma,
     M. Valiev, H. J. J. van Dam, D. Wang, E. Apra, T. L. Windus, J. Hammond,
     J. Autschbach, P. Nichols, S. Hirata, M. T. Hackler, Y. Zhao, P.-D. Fan,
      R. J. Harrison, M. Dupuis, D. M. A. Smith, K. Glaesemann, J. Nieplocha,
      V. Tipparaju, M. Krishnan, A. Vazquez-Mayagoitia, L. Jensen, M. Swart,
      Q. Wu, T. Van Voorhis, A. A. Auer, M. Nooijen, L. D. Crosby, E. Brown,
             G. Cisneros, G. I. Fann, H. Fruchtl, J. Garza, K. Hirao,
        R. Kendall, J. A. Nichols, K. Tsemekhman, K. Wolinski, J. Anchell,
       D. Bernholdt, P. Borowski, T. Clark, D. Clerc, H. Dachsel, M. Deegan,
        K. Dyall, D. Elwood, E. Glendening, M. Gutowski, A. Hess, J. Jaffe,
        B. Johnson, J. Ju, R. Kobayashi, R. Kutteh, Z. Lin, R. Littlefield,
    X. Long, B. Meng, T. Nakajima, S. Niu, L. Pollack, M. Rosing, G. Sandrone,
       M. Stave, H. Taylor, G. Thomas, J. H. van Lenthe, A. Wong, Z. Zhang.

 Total times  cpu:       47.3s     wall:       49.6s
