 argument  1 = mp2_si2h6_ri_opt.nw



============================== echo of input deck ==============================
echo
start disilane
title "disilane, Si2H6"

geometry autoz
  symmetry group d3d
  Si          0.0         0.0               1.181424
  H           0.990312   -0.990312          1.694694
end

basis "ao basis" spherical
  H  library cc-pvdz
  Si library cc-pvdz
end

basis "ri-mp2 basis" spherical
  H  library cc-pvdz-ri
  Si library cc-pvdz-ri
end

mp2
  freeze atomic
end

task rimp2 energy
task rimp2 optimize

================================================================================


                                         
                                         


              Northwest Computational Chemistry Package (NWChem) 6.0
              ------------------------------------------------------


                    Environmental Molecular Sciences Laboratory
                       Pacific Northwest National Laboratory
                                Richland, WA 99352

                              Copyright (c) 1994-2010
                       Pacific Northwest National Laboratory
                            Battelle Memorial Institute

             NWChem is an open-source computational chemistry package
                        distributed under the terms of the
                      Educational Community License (ECL) 2.0
             A copy of the license is included with this distribution
                              in the LICENSE.TXT file

                                  ACKNOWLEDGMENT
                                  --------------

            This software and its documentation were developed at the
            EMSL at Pacific Northwest National Laboratory, a multiprogram
            national laboratory, operated for the U.S. Department of Energy
            by Battelle under Contract Number DE-AC05-76RL01830. Support
            for this work was provided by the Department of Energy Office
            of Biological and Environmental Research, Office of Basic
            Energy Sciences, and the Office of Advanced Scientific Computing.


           Job information
           ---------------

    hostname      = arcen
    program       = ../../../bin/LINUX64/nwchem
    date          = Mon Nov 29 18:09:39 2010

    compiled      = Fri_Nov_19_21:27:19_2010
    source        = /home/d3y133/nwchem-releases/nwchem-6.0-gfortran
    nwchem branch = 6.0
    input         = mp2_si2h6_ri_opt.nw
    prefix        = disilane.
    data base     = ./disilane.db
    status        = startup
    nproc         =        4
    time left     =     -1s



           Memory information
           ------------------

    heap     =   13107201 doubles =    100.0 Mbytes
    stack    =   13107201 doubles =    100.0 Mbytes
    global   =   26214400 doubles =    200.0 Mbytes (distinct from heap & stack)
    total    =   52428802 doubles =    400.0 Mbytes
    verify   = yes
    hardfail = no 


           Directory information
           ---------------------

  0 permanent = .
  0 scratch   = .




                                NWChem Input Module
                                -------------------


                                  disilane, Si2H6
                                  ---------------

 Scaling coordinates for geometry "geometry" by  1.889725989
 (inverse scale =  0.529177249)

 Turning off AUTOSYM since
 SYMMETRY directive was detected!


          ------
          auto-z
          ------


                             Geometry "geometry" -> ""
                             -------------------------

 Output coordinates in angstroms (scale by  1.889725989 to convert to a.u.)

  No.       Tag          Charge          X              Y              Z
 ---- ---------------- ---------- -------------- -------------- --------------
    1 Si                  14.0000     0.00000000     0.00000000     1.18142400
    2 Si                  14.0000     0.00000000     0.00000000    -1.18142400
    3 H                    1.0000     0.99031200    -0.99031200     1.69469400
    4 H                    1.0000     0.36247935     1.35279135     1.69469400
    5 H                    1.0000    -1.35279135    -0.36247935     1.69469400
    6 H                    1.0000    -0.99031200     0.99031200    -1.69469400
    7 H                    1.0000     1.35279135     0.36247935    -1.69469400
    8 H                    1.0000    -0.36247935    -1.35279135    -1.69469400

      Atomic Mass 
      ----------- 

      Si                27.976930
      H                  1.007825


 Effective nuclear repulsion energy (a.u.)      90.1274120146

            Nuclear Dipole moment (a.u.) 
            ----------------------------
        X                 Y               Z
 ---------------- ---------------- ----------------
     0.0000000000     0.0000000000     0.0000000000

      Symmetry information
      --------------------

 Group name             D3d       
 Group number             33
 Group order              12
 No. of unique centers     2

      Symmetry unique atoms

     1    3



                                Z-matrix (autoz)
                                -------- 

 Units are Angstrom for bonds and degrees for angles

      Type          Name      I     J     K     L     M      Value
      ----------- --------  ----- ----- ----- ----- ----- ----------
    1 Stretch                  1     2                       2.36285
    2 Stretch                  1     3                       1.49160
    3 Stretch                  1     4                       1.49160
    4 Stretch                  1     5                       1.49160
    5 Stretch                  2     6                       1.49160
    6 Stretch                  2     7                       1.49160
    7 Stretch                  2     8                       1.49160
    8 Bend                     1     2     6               110.12724
    9 Bend                     1     2     7               110.12724
   10 Bend                     1     2     8               110.12724
   11 Bend                     2     1     3               110.12724
   12 Bend                     2     1     4               110.12724
   13 Bend                     2     1     5               110.12724
   14 Bend                     3     1     4               108.80731
   15 Bend                     3     1     5               108.80731
   16 Bend                     4     1     5               108.80731
   17 Bend                     6     2     7               108.80731
   18 Bend                     6     2     8               108.80731
   19 Bend                     7     2     8               108.80731
   20 Torsion                  3     1     2     6         180.00000
   21 Torsion                  3     1     2     7         -60.00000
   22 Torsion                  3     1     2     8          60.00000
   23 Torsion                  4     1     2     6         -60.00000
   24 Torsion                  4     1     2     7          60.00000
   25 Torsion                  4     1     2     8         180.00000
   26 Torsion                  5     1     2     6          60.00000
   27 Torsion                  5     1     2     7         180.00000
   28 Torsion                  5     1     2     8         -60.00000


            XYZ format geometry
            -------------------
     8
 geometry
 Si                    0.00000000     0.00000000     1.18142400
 Si                    0.00000000     0.00000000    -1.18142400
 H                     0.99031200    -0.99031200     1.69469400
 H                     0.36247935     1.35279135     1.69469400
 H                    -1.35279135    -0.36247935     1.69469400
 H                    -0.99031200     0.99031200    -1.69469400
 H                     1.35279135     0.36247935    -1.69469400
 H                    -0.36247935    -1.35279135    -1.69469400

 ==============================================================================
                                internuclear distances
 ------------------------------------------------------------------------------
       center one      |      center two      | atomic units |  angstroms
 ------------------------------------------------------------------------------
    2 Si               |   1 Si               |     4.46514  |     2.36285
    3 H                |   1 Si               |     2.81872  |     1.49160
    4 H                |   1 Si               |     2.81872  |     1.49160
    5 H                |   1 Si               |     2.81872  |     1.49160
    6 H                |   2 Si               |     2.81872  |     1.49160
    7 H                |   2 Si               |     2.81872  |     1.49160
    8 H                |   2 Si               |     2.81872  |     1.49160
 ------------------------------------------------------------------------------
                         number of included internuclear distances:          7
 ==============================================================================



 ==============================================================================
                                 internuclear angles
 ------------------------------------------------------------------------------
        center 1       |       center 2       |       center 3       |  degrees
 ------------------------------------------------------------------------------
    2 Si               |   1 Si               |   3 H                |   110.13
    2 Si               |   1 Si               |   4 H                |   110.13
    2 Si               |   1 Si               |   5 H                |   110.13
    3 H                |   1 Si               |   4 H                |   108.81
    3 H                |   1 Si               |   5 H                |   108.81
    4 H                |   1 Si               |   5 H                |   108.81
    1 Si               |   2 Si               |   6 H                |   110.13
    1 Si               |   2 Si               |   7 H                |   110.13
    1 Si               |   2 Si               |   8 H                |   110.13
    6 H                |   2 Si               |   7 H                |   108.81
    6 H                |   2 Si               |   8 H                |   108.81
    7 H                |   2 Si               |   8 H                |   108.81
 ------------------------------------------------------------------------------
                            number of included internuclear angles:         12
 ==============================================================================



  library name resolved from: .nwchemrc
  library file name is: </home/d3y133/nwchem-releases/nwchem-merge/nwchem-dev/QA/../src/basis/libraries/>
  
                      Basis "ao basis" -> "" (spherical)
                      -----
  H (Hydrogen)
  ------------
            Exponent  Coefficients 
       -------------- ---------------------------------------------------------
  1 S  1.30100000E+01  0.019685
  1 S  1.96200000E+00  0.137977
  1 S  4.44600000E-01  0.478148

  2 S  1.22000000E-01  1.000000

  3 P  7.27000000E-01  1.000000

  Si (Silicon)
  ------------
            Exponent  Coefficients 
       -------------- ---------------------------------------------------------
  1 S  7.88600000E+04  0.000270
  1 S  1.18200000E+04  0.002097
  1 S  2.69200000E+03  0.010851
  1 S  7.63400000E+02  0.043675
  1 S  2.49600000E+02  0.137653
  1 S  9.02800000E+01  0.316644
  1 S  3.52900000E+01  0.418581
  1 S  1.45100000E+01  0.210212
  1 S  4.05300000E+00  0.014495
  1 S  1.48200000E+00 -0.002036
  1 S  2.51700000E-01  0.000624

  2 S  7.88600000E+04 -0.000072
  2 S  1.18200000E+04 -0.000555
  2 S  2.69200000E+03 -0.002938
  2 S  7.63400000E+02 -0.011769
  2 S  2.49600000E+02 -0.040291
  2 S  9.02800000E+01 -0.100609
  2 S  3.52900000E+01 -0.196528
  2 S  1.45100000E+01 -0.102382
  2 S  4.05300000E+00  0.527190
  2 S  1.48200000E+00  0.593251
  2 S  2.51700000E-01  0.033265

  3 S  7.88600000E+04  0.000019
  3 S  1.18200000E+04  0.000142
  3 S  2.69200000E+03  0.000752
  3 S  7.63400000E+02  0.003023
  3 S  2.49600000E+02  0.010368
  3 S  9.02800000E+01  0.026256
  3 S  3.52900000E+01  0.052399
  3 S  1.45100000E+01  0.029096
  3 S  4.05300000E+00 -0.178003
  3 S  1.48200000E+00 -0.346874
  3 S  2.51700000E-01  0.623020

  4 S  9.24300000E-02  1.000000

  5 P  3.15900000E+02  0.003927
  5 P  7.44200000E+01  0.029881
  5 P  2.34800000E+01  0.127212
  5 P  8.48800000E+00  0.320943
  5 P  3.21700000E+00  0.455429
  5 P  1.22900000E+00  0.268563
  5 P  2.96400000E-01  0.018834

  6 P  3.15900000E+02 -0.000858
  6 P  7.44200000E+01 -0.006303
  6 P  2.34800000E+01 -0.028826
  6 P  8.48800000E+00 -0.069456
  6 P  3.21700000E+00 -0.119493
  6 P  1.22900000E+00 -0.019958
  6 P  2.96400000E-01  0.510268

  7 P  8.76800000E-02  1.000000

  8 D  2.75000000E-01  1.000000



 Summary of "ao basis" -> "" (spherical)
 ------------------------------------------------------------------------------
       Tag                 Description            Shells   Functions and Types
 ---------------- ------------------------------  ------  ---------------------
 H                          cc-pvdz                  3        5   2s1p
 Si                         cc-pvdz                  8       18   4s3p1d


  library name resolved from: .nwchemrc
  library file name is: </home/d3y133/nwchem-releases/nwchem-merge/nwchem-dev/QA/../src/basis/libraries/>
  
                      Basis "ri-mp2 basis" -> "" (spherical)
                      -----
  H (Hydrogen)
  ------------
            Exponent  Coefficients 
       -------------- ---------------------------------------------------------
  1 S  5.11588952E+00  1.000000

  2 S  1.14296528E+00  1.000000

  3 S  2.91661530E-01  1.000000

  4 P  1.91496403E+00  1.000000

  5 P  9.86401240E-01  1.000000

  6 D  1.17208347E+00  1.000000

  Si (Silicon)
  ------------
            Exponent  Coefficients 
       -------------- ---------------------------------------------------------
  1 S  2.33633875E+02  1.000000

  2 S  5.52657863E+01  1.000000

  3 S  1.55713271E+01  1.000000

  4 S  7.67281761E+00  1.000000

  5 S  3.55992335E+00  1.000000

  6 S  1.04573368E+00  1.000000

  7 S  6.89092864E-01  1.000000

  8 S  3.60760826E-01  1.000000

  9 S  1.79400138E-01  1.000000

 10 P  1.02858191E+02  1.000000

 11 P  1.55910198E+01  1.000000

 12 P  5.84031284E+00  1.000000

 13 P  2.15619784E+00  1.000000

 14 P  1.00713175E+00  1.000000

 15 P  4.20361872E-01  1.000000

 16 P  2.09614160E-01  1.000000

 17 D  1.85613985E+01  1.000000

 18 D  4.31964720E+00  1.000000

 19 D  2.06996083E+00  1.000000

 20 D  4.72505925E-01  1.000000

 21 D  2.23484111E-01  1.000000

 22 F  5.69872251E+00  1.000000

 23 F  2.30712278E+00  1.000000

 24 F  4.60767803E-01  1.000000



 Summary of "ri-mp2 basis" -> "" (spherical)
 ------------------------------------------------------------------------------
       Tag                 Description            Shells   Functions and Types
 ---------------- ------------------------------  ------  ---------------------
 H                         cc-pvdz-ri                6       14   3s2p1d
 Si                        cc-pvdz-ri               24       76   9s7p5d3f


                                 NWChem SCF Module
                                 -----------------


                                  disilane, Si2H6



  ao basis        = "ao basis"
  functions       =    66
  atoms           =     8
  closed shells   =    17
  open shells     =     0
  charge          =   0.00
  wavefunction    = RHF 
  input vectors   = atomic
  output vectors  = ./disilane.movecs
  use symmetry    = T
  symmetry adapt  = T


 Summary of "ao basis" -> "ao basis" (spherical)
 ------------------------------------------------------------------------------
       Tag                 Description            Shells   Functions and Types
 ---------------- ------------------------------  ------  ---------------------
 H                          cc-pvdz                  3        5   2s1p
 Si                         cc-pvdz                  8       18   4s3p1d


      Symmetry analysis of basis
      --------------------------

        a1g        12
        a1u         1
        a2g         1
        a2u        12
        eg         20
        eu         20


 Forming initial guess at       0.1s


      Superposition of Atomic Density Guess
      -------------------------------------

 Sum of atomic energies:        -580.66620987

      Non-variational initial energy
      ------------------------------

 Total energy =    -581.210123
 1-e energy   =    -983.208014
 2-e energy   =     311.870480
 HOMO         =      -0.324466
 LUMO         =       0.076849


      Symmetry analysis of molecular orbitals - initial
      -------------------------------------------------

  Numbering of irreducible representations: 

     1 a1g         2 a1u         3 a2g         4 a2u         5 eg      
     6 eu      

  Orbital symmetries:

     1 a2u         2 a1g         3 a1g         4 a2u         5 eu      
     6 eu          7 eg          8 eg          9 a1g        10 a2u     
    11 a1g        12 a2u        13 eu         14 eu         15 eg      
    16 eg         17 a1g        18 eu         19 eu         20 a2u     
    21 a1g        22 eg         23 eg         24 a2u        25 a1g     
    26 eu         27 eu      


 Starting SCF solution at       0.8s



 ----------------------------------------------
         Quadratically convergent ROHF

 Convergence threshold     :          1.000E-06
 Maximum no. of iterations :           30
 Final Fock-matrix accuracy:          1.000E-08
 ----------------------------------------------


 Integral file          = ./disilane.aoints.0
 Record size in doubles =  65536        No. of integs per rec  =  43688
 Max. records in memory =      4        Max. records in file   =  18321
 No. of bits per label  =      8        No. of bits per value  =     64


 #quartets = 2.966D+04 #integrals = 3.567D+05 #direct =  0.0% #cached =100.0%


File balance: exchanges=     0  moved=     0  time=   0.0


              iter       energy          gnorm     gmax       time
             ----- ------------------- --------- --------- --------
                 1     -581.3091824735  4.29D-01  1.48D-01      1.3
                 2     -581.3380684648  8.78D-02  2.19D-02      1.3
                 3     -581.3391532806  3.72D-03  9.93D-04      1.4
                 4     -581.3391552441  3.16D-06  9.52D-07      1.5
                 5     -581.3391552441  9.62D-08  3.11D-08      1.5


       Final RHF  results 
       ------------------ 

         Total SCF energy =   -581.339155244102
      One-electron energy =   -984.885806027210
      Two-electron energy =    313.419238768503
 Nuclear repulsion energy =     90.127412014605

        Time for solution =      0.7s



       Symmetry analysis of molecular orbitals - final
       -----------------------------------------------

  Numbering of irreducible representations: 

     1 a1g         2 a1u         3 a2g         4 a2u         5 eg      
     6 eu      

  Orbital symmetries:

     1 a1g         2 a2u         3 a1g         4 a2u         5 a1g     
     6 eu          7 eu          8 eg          9 eg         10 a2u     
    11 a1g        12 a2u        13 eu         14 eu         15 eg      
    16 eg         17 a1g        18 eu         19 eu         20 a2u     
    21 a1g        22 eg         23 eg         24 a2u        25 a1g     
    26 eu         27 eu      

             Final eigenvalues
             -----------------

              1      
    1  -68.7804
    2  -68.7804
    3   -6.1312
    4   -6.1311
    5   -4.2371
    6   -4.2370
    7   -4.2370
    8   -4.2369
    9   -4.2369
   10   -4.2365
   11   -0.7579
   12   -0.6798
   13   -0.4984
   14   -0.4984
   15   -0.4711
   16   -0.4711
   17   -0.4022
   18    0.1415
   19    0.1415
   20    0.1488
   21    0.1755
   22    0.1926
   23    0.1926
   24    0.2209
   25    0.3530
   26    0.4030
   27    0.4030

                       ROHF Final Molecular Orbital Analysis
                       -------------------------------------

 Vector    8  Occ=2.000000D+00  E=-4.236927D+00  Symmetry=eg
              MO Center=  2.8D-15, -1.7D-15, -1.3D-11, r^2= 1.5D+00
   Bfn.  Coefficient  Atom+Function         Bfn.  Coefficient  Atom+Function  
  ----- ------------  ---------------      ----- ------------  ---------------
    23      0.706854  2 Si px                 5     -0.706854  1 Si px         

 Vector    9  Occ=2.000000D+00  E=-4.236927D+00  Symmetry=eg
              MO Center=  1.2D-15,  2.0D-15,  4.9D-11, r^2= 1.5D+00
   Bfn.  Coefficient  Atom+Function         Bfn.  Coefficient  Atom+Function  
  ----- ------------  ---------------      ----- ------------  ---------------
     6      0.706854  1 Si py                24     -0.706854  2 Si py         

 Vector   10  Occ=2.000000D+00  E=-4.236528D+00  Symmetry=a2u
              MO Center= -7.9D-22,  9.5D-22,  9.0D-17, r^2= 1.5D+00
   Bfn.  Coefficient  Atom+Function         Bfn.  Coefficient  Atom+Function  
  ----- ------------  ---------------      ----- ------------  ---------------
     7      0.707524  1 Si pz                25      0.707524  2 Si pz         

 Vector   11  Occ=2.000000D+00  E=-7.578634D-01  Symmetry=a1g
              MO Center= -3.9D-18, -7.8D-17,  1.2D-16, r^2= 3.2D+00
   Bfn.  Coefficient  Atom+Function         Bfn.  Coefficient  Atom+Function  
  ----- ------------  ---------------      ----- ------------  ---------------
     3      0.310977  1 Si s                 21      0.310977  2 Si s          
     4      0.181965  1 Si s                 22      0.181965  2 Si s          

 Vector   12  Occ=2.000000D+00  E=-6.798332D-01  Symmetry=a2u
              MO Center= -1.3D-17, -9.4D-17,  4.8D-16, r^2= 4.3D+00
   Bfn.  Coefficient  Atom+Function         Bfn.  Coefficient  Atom+Function  
  ----- ------------  ---------------      ----- ------------  ---------------
     3      0.279850  1 Si s                 21     -0.279850  2 Si s          
    22     -0.178987  2 Si s                  4      0.178987  1 Si s          

 Vector   13  Occ=2.000000D+00  E=-4.984112D-01  Symmetry=eu
              MO Center= -4.7D-16,  2.2D-16,  1.3D-15, r^2= 4.6D+00
   Bfn.  Coefficient  Atom+Function         Bfn.  Coefficient  Atom+Function  
  ----- ------------  ---------------      ----- ------------  ---------------
    26      0.225581  2 Si px                 8      0.225581  1 Si px         
    47     -0.217383  5 H  s                 57      0.217383  7 H  s          
    37      0.210863  3 H  s                 52     -0.210863  6 H  s          

 Vector   14  Occ=2.000000D+00  E=-4.984112D-01  Symmetry=eu
              MO Center=  3.6D-16, -1.5D-15,  2.5D-16, r^2= 4.6D+00
   Bfn.  Coefficient  Atom+Function         Bfn.  Coefficient  Atom+Function  
  ----- ------------  ---------------      ----- ------------  ---------------
    62      0.247248  8 H  s                 42     -0.247248  4 H  s          
    27     -0.225581  2 Si py                 9     -0.225581  1 Si py         

 Vector   15  Occ=2.000000D+00  E=-4.711155D-01  Symmetry=eg
              MO Center=  1.3D-15,  1.4D-15,  1.2D-15, r^2= 4.9D+00
   Bfn.  Coefficient  Atom+Function         Bfn.  Coefficient  Atom+Function  
  ----- ------------  ---------------      ----- ------------  ---------------
    42      0.235890  4 H  s                 62      0.235890  8 H  s          
    27     -0.220278  2 Si py                 9      0.220278  1 Si py         
    37     -0.215666  3 H  s                 52     -0.215666  6 H  s          
    43      0.153174  4 H  s                 63      0.153174  8 H  s          

 Vector   16  Occ=2.000000D+00  E=-4.711155D-01  Symmetry=eg
              MO Center=  2.1D-15,  5.8D-17,  1.5D-15, r^2= 4.9D+00
   Bfn.  Coefficient  Atom+Function         Bfn.  Coefficient  Atom+Function  
  ----- ------------  ---------------      ----- ------------  ---------------
    47      0.260706  5 H  s                 57      0.260706  7 H  s          
     8     -0.220278  1 Si px                26      0.220278  2 Si px         
    48      0.169288  5 H  s                 58      0.169288  7 H  s          

 Vector   17  Occ=2.000000D+00  E=-4.022267D-01  Symmetry=a1g
              MO Center=  4.1D-17,  1.8D-16, -2.1D-16, r^2= 3.0D+00
   Bfn.  Coefficient  Atom+Function         Bfn.  Coefficient  Atom+Function  
  ----- ------------  ---------------      ----- ------------  ---------------
    28      0.331686  2 Si pz                10     -0.331686  1 Si pz         
    13     -0.194591  1 Si pz                31      0.194591  2 Si pz         

 Vector   18  Occ=0.000000D+00  E= 1.414786D-01  Symmetry=eu
              MO Center=  2.6D-16, -8.1D-16,  9.7D-17, r^2= 4.6D+00
   Bfn.  Coefficient  Atom+Function         Bfn.  Coefficient  Atom+Function  
  ----- ------------  ---------------      ----- ------------  ---------------
    63      0.763357  8 H  s                 43     -0.763357  4 H  s          
    12      0.727243  1 Si py                30      0.727243  2 Si py         
    58     -0.610640  7 H  s                 48      0.610640  5 H  s          
    11      0.492437  1 Si px                29      0.492437  2 Si px         
    38      0.152717  3 H  s                 53     -0.152717  6 H  s          

 Vector   19  Occ=0.000000D+00  E= 1.414786D-01  Symmetry=eu
              MO Center=  9.8D-15, -1.2D-16, -4.9D-15, r^2= 4.6D+00
   Bfn.  Coefficient  Atom+Function         Bfn.  Coefficient  Atom+Function  
  ----- ------------  ---------------      ----- ------------  ---------------
    38      0.793278  3 H  s                 53     -0.793278  6 H  s          
    11     -0.727243  1 Si px                29     -0.727243  2 Si px         
    48     -0.528896  5 H  s                 58      0.528896  7 H  s          
    30      0.492437  2 Si py                12      0.492437  1 Si py         
    63      0.264382  8 H  s                 43     -0.264382  4 H  s          

 Vector   20  Occ=0.000000D+00  E= 1.488456D-01  Symmetry=a2u
              MO Center= -4.1D-17,  2.2D-18, -1.3D-15, r^2= 7.2D+00
   Bfn.  Coefficient  Atom+Function         Bfn.  Coefficient  Atom+Function  
  ----- ------------  ---------------      ----- ------------  ---------------
    22      1.441984  2 Si s                  4     -1.441984  1 Si s          
    13      1.373209  1 Si pz                31      1.373209  2 Si pz         

 Vector   21  Occ=0.000000D+00  E= 1.754555D-01  Symmetry=a1g
              MO Center=  2.8D-16,  1.1D-15, -5.3D-16, r^2= 7.0D+00
   Bfn.  Coefficient  Atom+Function         Bfn.  Coefficient  Atom+Function  
  ----- ------------  ---------------      ----- ------------  ---------------
    22      1.473395  2 Si s                  4      1.473395  1 Si s          
    53     -0.782432  6 H  s                 48     -0.782432  5 H  s          
    43     -0.782432  4 H  s                 63     -0.782432  8 H  s          
    58     -0.782432  7 H  s                 38     -0.782432  3 H  s          
    13      0.778580  1 Si pz                31     -0.778580  2 Si pz         

 Vector   22  Occ=0.000000D+00  E= 1.925943D-01  Symmetry=eg
              MO Center= -4.1D-15, -2.6D-15, -9.3D-15, r^2= 6.4D+00
   Bfn.  Coefficient  Atom+Function         Bfn.  Coefficient  Atom+Function  
  ----- ------------  ---------------      ----- ------------  ---------------
    29      1.470166  2 Si px                11     -1.470166  1 Si px         
    58     -1.186264  7 H  s                 48     -1.186264  5 H  s          
    12     -0.894185  1 Si py                30      0.894185  2 Si py         
    43      0.893717  4 H  s                 63      0.893717  8 H  s          
    53      0.292546  6 H  s                 38      0.292546  3 H  s          

 Vector   23  Occ=0.000000D+00  E= 1.925943D-01  Symmetry=eg
              MO Center= -1.5D-15,  7.4D-16,  1.0D-14, r^2= 6.4D+00
   Bfn.  Coefficient  Atom+Function         Bfn.  Coefficient  Atom+Function  
  ----- ------------  ---------------      ----- ------------  ---------------
    12      1.470166  1 Si py                30     -1.470166  2 Si py         
    38      1.200878  3 H  s                 53      1.200878  6 H  s          
    11     -0.894185  1 Si px                29      0.894185  2 Si px         
    43     -0.853791  4 H  s                 63     -0.853791  8 H  s          
    48     -0.347086  5 H  s                 58     -0.347086  7 H  s          

 Vector   24  Occ=0.000000D+00  E= 2.208782D-01  Symmetry=a2u
              MO Center=  2.0D-16, -9.5D-16, -1.3D-15, r^2= 7.7D+00
   Bfn.  Coefficient  Atom+Function         Bfn.  Coefficient  Atom+Function  
  ----- ------------  ---------------      ----- ------------  ---------------
     4     -1.865676  1 Si s                 22      1.865676  2 Si s          
    38      0.960859  3 H  s                 53     -0.960859  6 H  s          
    43      0.960859  4 H  s                 63     -0.960859  8 H  s          
    48      0.960859  5 H  s                 58     -0.960859  7 H  s          
    13     -0.609174  1 Si pz                31     -0.609174  2 Si pz         

 Vector   25  Occ=0.000000D+00  E= 3.529703D-01  Symmetry=a1g
              MO Center= -8.1D-16, -4.2D-15,  1.4D-14, r^2= 7.8D+00
   Bfn.  Coefficient  Atom+Function         Bfn.  Coefficient  Atom+Function  
  ----- ------------  ---------------      ----- ------------  ---------------
    13      0.518619  1 Si pz                31     -0.518619  2 Si pz         
    10     -0.513272  1 Si pz                28      0.513272  2 Si pz         
    21     -0.398708  2 Si s                  3     -0.398708  1 Si s          
    53      0.309988  6 H  s                 38      0.309988  3 H  s          
    48      0.309988  5 H  s                 58      0.309988  7 H  s          

 Vector   26  Occ=0.000000D+00  E= 4.029628D-01  Symmetry=eu
              MO Center=  5.7D-16, -1.3D-16,  2.1D-16, r^2= 6.6D+00
   Bfn.  Coefficient  Atom+Function         Bfn.  Coefficient  Atom+Function  
  ----- ------------  ---------------      ----- ------------  ---------------
    26      0.673265  2 Si px                 8      0.673265  1 Si px         
    58     -0.577867  7 H  s                 48      0.577867  5 H  s          
    38     -0.407536  3 H  s                 53      0.407536  6 H  s          
    11     -0.266643  1 Si px                29     -0.266643  2 Si px         
    57      0.210184  7 H  s                 47     -0.210184  5 H  s          

 Vector   27  Occ=0.000000D+00  E= 4.029628D-01  Symmetry=eu
              MO Center= -1.1D-14,  4.1D-15, -3.7D-14, r^2= 6.6D+00
   Bfn.  Coefficient  Atom+Function         Bfn.  Coefficient  Atom+Function  
  ----- ------------  ---------------      ----- ------------  ---------------
    27      0.673265  2 Si py                 9      0.673265  1 Si py         
    63      0.568923  8 H  s                 43     -0.568923  4 H  s          
    53     -0.431972  6 H  s                 38      0.431972  3 H  s          
    30     -0.266643  2 Si py                12     -0.266643  1 Si py         
    62     -0.206931  8 H  s                 42      0.206931  4 H  s          

 Vector   28  Occ=0.000000D+00  E= 4.358877D-01  Symmetry=eg
              MO Center=  9.7D-15,  4.2D-14,  3.5D-14, r^2= 7.2D+00
   Bfn.  Coefficient  Atom+Function         Bfn.  Coefficient  Atom+Function  
  ----- ------------  ---------------      ----- ------------  ---------------
     9      0.651244  1 Si py                27     -0.651244  2 Si py         
    43     -0.567031  4 H  s                 63     -0.567031  8 H  s          
    30      0.448915  2 Si py                12     -0.448915  1 Si py         
    53      0.413128  6 H  s                 38      0.413128  3 H  s          
    42      0.200461  4 H  s                 62      0.200461  8 H  s          

 Vector   29  Occ=0.000000D+00  E= 4.358877D-01  Symmetry=eg
              MO Center=  7.6D-15, -1.8D-14, -2.7D-14, r^2= 7.2D+00
   Bfn.  Coefficient  Atom+Function         Bfn.  Coefficient  Atom+Function  
  ----- ------------  ---------------      ----- ------------  ---------------
     8      0.651244  1 Si px                26     -0.651244  2 Si px         
    58      0.565895  7 H  s                 48      0.565895  5 H  s          
    11     -0.448915  1 Si px                29      0.448915  2 Si px         
    38     -0.416231  3 H  s                 53     -0.416231  6 H  s          
    57     -0.200059  7 H  s                 47     -0.200059  5 H  s          

 Vector   30  Occ=0.000000D+00  E= 4.633240D-01  Symmetry=eu
              MO Center= -8.3D-15, -5.1D-14, -3.8D-14, r^2= 4.0D+00
   Bfn.  Coefficient  Atom+Function         Bfn.  Coefficient  Atom+Function  
  ----- ------------  ---------------      ----- ------------  ---------------
    63      0.577945  8 H  s                 43     -0.577945  4 H  s          
    33     -0.507846  2 Si d -1              15      0.507846  1 Si d -1       
    12      0.441124  1 Si py                30      0.441124  2 Si py         
    48      0.432201  5 H  s                 58     -0.432201  7 H  s          
    35      0.304773  2 Si d  1              17     -0.304773  1 Si d  1       

 Vector   31  Occ=0.000000D+00  E= 4.633240D-01  Symmetry=eu
              MO Center= -5.7D-16,  3.5D-14, -3.0D-14, r^2= 4.0D+00
   Bfn.  Coefficient  Atom+Function         Bfn.  Coefficient  Atom+Function  
  ----- ------------  ---------------      ----- ------------  ---------------
    53     -0.583208  6 H  s                 38      0.583208  3 H  s          
    35     -0.507846  2 Si d  1              17      0.507846  1 Si d  1       
    11     -0.441124  1 Si px                29     -0.441124  2 Si px         
    58      0.417821  7 H  s                 48     -0.417821  5 H  s          
    33     -0.304773  2 Si d -1              15      0.304773  1 Si d -1       

 Vector   32  Occ=0.000000D+00  E= 4.802287D-01  Symmetry=a2u
              MO Center=  6.4D-15,  8.6D-15, -1.5D-15, r^2= 6.3D+00
   Bfn.  Coefficient  Atom+Function         Bfn.  Coefficient  Atom+Function  
  ----- ------------  ---------------      ----- ------------  ---------------
    31      1.389775  2 Si pz                13      1.389775  1 Si pz         
    28     -0.745336  2 Si pz                10     -0.745336  1 Si pz         
    22      0.535930  2 Si s                  4     -0.535930  1 Si s          
    16     -0.295494  1 Si d  0              34      0.295494  2 Si d  0       
    42     -0.180294  4 H  s                 37     -0.180294  3 H  s          

 Vector   33  Occ=0.000000D+00  E= 5.245719D-01  Symmetry=a1g
              MO Center=  1.4D-15,  1.7D-15, -2.5D-14, r^2= 4.7D+00
   Bfn.  Coefficient  Atom+Function         Bfn.  Coefficient  Atom+Function  
  ----- ------------  ---------------      ----- ------------  ---------------
     4      2.569402  1 Si s                 22      2.569402  2 Si s          
     3     -1.228292  1 Si s                 21     -1.228292  2 Si s          
     2     -0.834966  1 Si s                 20     -0.834966  2 Si s          
    43     -0.628504  4 H  s                 63     -0.628504  8 H  s          
    58     -0.628504  7 H  s                 53     -0.628504  6 H  s          


 center of mass
 --------------
 x =   0.00000000 y =   0.00000000 z =   0.00000000

 moments of inertia (a.u.)
 ------------------
         362.089591109156           0.000000000000           0.000000000000
           0.000000000000         362.089591109156           0.000000000000
           0.000000000000           0.000000000000          42.355335679168

  Mulliken analysis of the total density
  --------------------------------------

    Atom       Charge   Shell Charges
 -----------   ------   -------------------------------------------------------
    1 Si  14    13.69   2.00  2.01  0.73  0.45  6.00  1.49  0.80  0.21
    2 Si  14    13.69   2.00  2.01  0.73  0.45  6.00  1.49  0.80  0.21
    3 H    1     1.10   0.72  0.37  0.01
    4 H    1     1.10   0.72  0.37  0.01
    5 H    1     1.10   0.72  0.37  0.01
    6 H    1     1.10   0.72  0.37  0.01
    7 H    1     1.10   0.72  0.37  0.01
    8 H    1     1.10   0.72  0.37  0.01

       Multipole analysis of the density wrt the origin
       ------------------------------------------------

     L   x y z        total         open         nuclear
     -   - - -        -----         ----         -------
     0   0 0 0      0.000000      0.000000     34.000000

     1   1 0 0      0.000000      0.000000      0.000000
     1   0 1 0      0.000000      0.000000      0.000000
     1   0 0 1      0.000000      0.000000      0.000000

     2   2 0 0    -23.852084      0.000000     21.013239
     2   1 1 0      0.000000      0.000000      0.000000
     2   1 0 1      0.000000      0.000000      0.000000
     2   0 2 0    -23.852084      0.000000     21.013239
     2   0 1 1      0.000000      0.000000      0.000000
     2   0 0 2    -24.776788      0.000000    201.098349


 Parallel integral file used      10 records with       0 large values

                               NWChem RI-MP2 Module
                               --------------------
                                  disilane, Si2H6



 SCF Reference Information:
            File: './disilane.movecs'
           Title: 'disilane, Si2H6'
    Size (AOxMO):     66 x     66
       Total Occ:              34.00
 RI-MP2 Calculation Information:
          Nr. of AO basis functions:         66
     Nr. of fitting basis functions:        236
               Nr. of MO spin cases:          1
        Nr. of MOs to be correlated:         56
     Nr. of occupied MOs correlated:          7
      Nr. of virtual MOs correlated:         49

          RI integral approximation: 'V'
    Threshold for Schwarz screening:  1.000E-09
 Smallest eigenvalue retained in fit  1.000E-08
     Base file name for MO integrals 'mo3cint'
    Type of storage for MO integrals 'EAF library'

 Transformation block size    7, requiring     1 integral passes.
 XForm_3cInts: Completed     1:    7 pass.             @Mon Nov 29 18:09:41 2010
 Energy evaluation using block sizes     7    7
 RIMP2_V_E2: Approx. ints. done (    1:    7,    1:    7) @Mon Nov 29 18:09:41 2010
 RIMP2_V_E2: Copy to B done (    1:    7,    1:    7)  @Mon Nov 29 18:09:41 2010
 RIMP2_V_E2: Denominators done (    1:    7,    1:    7) @Mon Nov 29 18:09:41 2010
 RIMP2_V_E2: Completed block (    1:    7,    1:    7) @Mon Nov 29 18:09:41 2010


          -------------------------------------------
          SCF energy                -581.339155244102
          Correlation energy          -0.213931672105
          Total MP2 energy          -581.553086916207
          -------------------------------------------

 -----------------------
 Performance information
 -----------------------

 Timer overhead =  5.00D-07 seconds/call

               Nr. of calls         CPU time (s)                 Wall time (s)                GFlops
             ---------------    -------------------     ------------------------------   -------------------
Name         Min   Avg   Max    Min     Avg     Max     Min     Avg     Max   Mx/calls   Min     Max     Sum
Overall       1     1     1    1.8     1.9     2.0      2.1     2.1     2.1     2.1      0.0     0.0     0.0   
3c integr     1     1     1   0.22    0.23    0.23     0.23    0.23    0.23    0.23      0.0     0.0     0.0   
Energy        1     1     1   8.00E-3 8.00E-3 8.00E-3  9.71E-3 9.71E-3 9.71E-3 9.71E-3   0.0     0.0     0.0   
3c integr     1     1     1   0.20    0.21    0.22     0.20    0.21    0.22    0.22      0.0     0.0     0.0   
First 2/3     3     3     3   3.00E-3 3.00E-3 3.00E-3  2.76E-3 2.91E-3 3.05E-3 1.02E-3   0.0     0.0     0.0   
Final 1/3     1     1     1   5.00E-3 5.00E-3 5.00E-3  5.21E-3 5.21E-3 5.21E-3 5.21E-3   0.0     0.0     0.0   
Write 3c      1     1     1    0.0     0.0     0.0     5.09E-4 5.54E-4 5.72E-4 5.72E-4   0.0     0.0     0.0   
Read 3c i     1     1     1    0.0     0.0     0.0     1.84E-4 1.91E-4 1.97E-4 1.97E-4   0.0     0.0     0.0   
Fitting b     1     1     1   8.50E-2 8.75E-2 8.90E-2  9.17E-2 9.17E-2 9.17E-2 9.17E-2   0.0     0.0     0.0   
Schwarz i     1     1     1   1.70E-2 1.90E-2 2.10E-2  2.09E-2 2.09E-2 2.09E-2 2.09E-2   0.0     0.0     0.0   
Form 4ci      1     1     1   6.00E-3 6.00E-3 6.00E-3  6.81E-3 6.82E-3 6.82E-3 6.82E-3   0.0     0.0     0.0   
Form A &      1     1     1    0.0     0.0     0.0     5.59E-4 5.60E-4 5.60E-4 5.60E-4   0.0     0.0     0.0   
Denominat     1     1     1   1.00E-3 1.00E-3 1.00E-3  2.74E-4 2.91E-4 3.34E-4 3.34E-4   0.0     0.0     0.0   
Pair Ener     1     1     1    0.0     0.0     0.0     2.10E-5 1.83E-4 3.12E-4 3.12E-4   0.0     0.0     0.0   

 The average no. of pstat calls per process was 1.60D+01
 with a timing overhead of 8.00D-06s


 Task  times  cpu:        1.9s     wall:        2.1s


                                NWChem Input Module
                                -------------------




                           NWChem Geometry Optimization
                           ----------------------------




                                  disilane, Si2H6


 maximum gradient threshold         (gmax) =   0.000450
 rms gradient threshold             (grms) =   0.000300
 maximum cartesian step threshold   (xmax) =   0.001800
 rms cartesian step threshold       (xrms) =   0.001200
 fixed trust radius                (trust) =   0.300000
 maximum step size to saddle      (sadstp) =   0.100000
 energy precision                  (eprec) =   1.0D-07
 maximum number of steps          (nptopt) =   20
 initial hessian option           (inhess) =    0
 line search option               (linopt) =    1
 hessian update option            (modupd) =    1
 saddle point option              (modsad) =    0
 initial eigen-mode to follow     (moddir) =    0
 initial variable to follow       (vardir) =    0
 follow first negative mode     (firstneg) =    T
 apply conjugacy                    (opcg) =    F
 source of zmatrix                         =   autoz   


          -------------------
          Energy Minimization
          -------------------


 Names of Z-matrix variables 
    1              2              3              4              5         
    6              7              8              9             10         
   11             12             13             14             15         
   16             17             18             19             20         
   21             22             23             24             25         
   26             27             28         

 Variables with the same non-blank name are constrained to be equal


 Using old Hessian from previous optimization

          --------
          Step   0
          --------


                         Geometry "geometry" -> "geometry"
                         ---------------------------------

 Output coordinates in angstroms (scale by  1.889725989 to convert to a.u.)

  No.       Tag          Charge          X              Y              Z
 ---- ---------------- ---------- -------------- -------------- --------------
    1 Si                  14.0000     0.00000000     0.00000000     1.18142400
    2 Si                  14.0000     0.00000000     0.00000000    -1.18142400
    3 H                    1.0000     0.99031200    -0.99031200     1.69469400
    4 H                    1.0000     0.36247935     1.35279135     1.69469400
    5 H                    1.0000    -1.35279135    -0.36247935     1.69469400
    6 H                    1.0000    -0.99031200     0.99031200    -1.69469400
    7 H                    1.0000     1.35279135     0.36247935    -1.69469400
    8 H                    1.0000    -0.36247935    -1.35279135    -1.69469400

      Atomic Mass 
      ----------- 

      Si                27.976930
      H                  1.007825


 Effective nuclear repulsion energy (a.u.)      90.1274120146

            Nuclear Dipole moment (a.u.) 
            ----------------------------
        X                 Y               Z
 ---------------- ---------------- ----------------
     0.0000000000     0.0000000000     0.0000000000

      Symmetry information
      --------------------

 Group name             D3d       
 Group number             33
 Group order              12
 No. of unique centers     2

      Symmetry unique atoms

     1    3

                         NWChem Numerical Gradients Module
                         ---------------------------------


 No. of totally-symmetric internal modes =   3

                                 NWChem SCF Module
                                 -----------------


                                  disilane, Si2H6



  ao basis        = "ao basis"
  functions       =    66
  atoms           =     8
  closed shells   =    17
  open shells     =     0
  charge          =   0.00
  wavefunction    = RHF 
  input vectors   = ./disilane.movecs
  output vectors  = ./disilane.movecs
  use symmetry    = T
  symmetry adapt  = T


 Summary of "ao basis" -> "ao basis" (spherical)
 ------------------------------------------------------------------------------
       Tag                 Description            Shells   Functions and Types
 ---------------- ------------------------------  ------  ---------------------
 H                          cc-pvdz                  3        5   2s1p
 Si                         cc-pvdz                  8       18   4s3p1d


      Symmetry analysis of basis
      --------------------------

        a1g        12
        a1u         1
        a2g         1
        a2u        12
        eg         20
        eu         20


  The SCF is already converged 

         Total SCF energy =   -581.339155244102

                               NWChem RI-MP2 Module
                               --------------------
                                  disilane, Si2H6



 SCF Reference Information:
            File: './disilane.movecs'
           Title: 'disilane, Si2H6'
    Size (AOxMO):     66 x     66
       Total Occ:              34.00
 RI-MP2 Calculation Information:
          Nr. of AO basis functions:         66
     Nr. of fitting basis functions:        236
               Nr. of MO spin cases:          1
        Nr. of MOs to be correlated:         56
     Nr. of occupied MOs correlated:          7
      Nr. of virtual MOs correlated:         49

          RI integral approximation: 'V'
    Threshold for Schwarz screening:  1.000E-09
 Smallest eigenvalue retained in fit  1.000E-08
     Base file name for MO integrals 'mo3cint'
    Type of storage for MO integrals 'EAF library'

 Transformation block size    7, requiring     1 integral passes.
 XForm_3cInts: Completed     1:    7 pass.             @Mon Nov 29 18:09:41 2010
 Energy evaluation using block sizes     7    7
 RIMP2_V_E2: Approx. ints. done (    1:    7,    1:    7) @Mon Nov 29 18:09:41 2010
 RIMP2_V_E2: Copy to B done (    1:    7,    1:    7)  @Mon Nov 29 18:09:41 2010
 RIMP2_V_E2: Denominators done (    1:    7,    1:    7) @Mon Nov 29 18:09:41 2010
 RIMP2_V_E2: Completed block (    1:    7,    1:    7) @Mon Nov 29 18:09:41 2010


          -------------------------------------------
          SCF energy                -581.339155244102
          Correlation energy          -0.213931672105
          Total MP2 energy          -581.553086916207
          -------------------------------------------

 -----------------------
 Performance information
 -----------------------

 Timer overhead =  4.00D-07 seconds/call

               Nr. of calls         CPU time (s)                 Wall time (s)                GFlops
             ---------------    -------------------     ------------------------------   -------------------
Name         Min   Avg   Max    Min     Avg     Max     Min     Avg     Max   Mx/calls   Min     Max     Sum
Overall       1     1     1   0.36    0.37    0.38     0.39    0.39    0.39    0.39      0.0     0.0     0.0   
3c integr     1     1     1   0.23    0.23    0.23     0.23    0.23    0.23    0.23      0.0     0.0     0.0   
Energy        1     1     1   8.00E-3 8.75E-3 9.00E-3  9.45E-3 9.45E-3 9.45E-3 9.45E-3   0.0     0.0     0.0   
3c integr     1     1     1   0.21    0.22    0.22     0.21    0.22    0.22    0.22      0.0     0.0     0.0   
First 2/3     3     3     3   3.00E-3 3.00E-3 3.00E-3  2.76E-3 2.91E-3 3.05E-3 1.02E-3   0.0     0.0     0.0   
Final 1/3     1     1     1   5.00E-3 5.00E-3 5.00E-3  5.05E-3 5.06E-3 5.06E-3 5.06E-3   0.0     0.0     0.0   
Write 3c      1     1     1    0.0     0.0     0.0     5.00E-4 5.37E-4 5.63E-4 5.63E-4   0.0     0.0     0.0   
Read 3c i     1     1     1    0.0     0.0     0.0     1.79E-4 1.91E-4 2.00E-4 2.00E-4   0.0     0.0     0.0   
Fitting b     1     1     1   8.20E-2 8.37E-2 8.60E-2  8.75E-2 8.75E-2 8.75E-2 8.75E-2   0.0     0.0     0.0   
Schwarz i     1     1     1   1.60E-2 1.87E-2 2.10E-2  2.10E-2 2.10E-2 2.10E-2 2.10E-2   0.0     0.0     0.0   
Form 4ci      1     1     1   7.00E-3 7.00E-3 7.00E-3  6.71E-3 6.71E-3 6.71E-3 6.71E-3   0.0     0.0     0.0   
Form A &      1     1     1    0.0    7.50E-4 1.00E-3  4.94E-4 4.95E-4 4.95E-4 4.95E-4   0.0     0.0     0.0   
Denominat     1     1     1    0.0     0.0     0.0     2.71E-4 2.73E-4 2.74E-4 2.74E-4   0.0     0.0     0.0   
Pair Ener     1     1     1    0.0    7.50E-4 1.00E-3  2.31E-5 1.99E-4 3.54E-4 3.54E-4   0.0     0.0     0.0   

 The average no. of pstat calls per process was 1.60D+01
 with a timing overhead of 6.40D-06s

 Reference energy        -581.55308692


 Saving state for rimp2 with suffix numg
        ./disilane.movecs

 Finite difference step  1.00000D-02
 Use five point formula F

                                 NWChem SCF Module
                                 -----------------


                                  disilane, Si2H6



  ao basis        = "ao basis"
  functions       =    66
  atoms           =     8
  closed shells   =    17
  open shells     =     0
  charge          =   0.00
  wavefunction    = RHF 
  input vectors   = ./disilane.movecs
  output vectors  = ./disilane.movecs
  use symmetry    = T
  symmetry adapt  = T


 Summary of "ao basis" -> "ao basis" (spherical)
 ------------------------------------------------------------------------------
       Tag                 Description            Shells   Functions and Types
 ---------------- ------------------------------  ------  ---------------------
 H                          cc-pvdz                  3        5   2s1p
 Si                         cc-pvdz                  8       18   4s3p1d


      Symmetry analysis of basis
      --------------------------

        a1g        12
        a1u         1
        a2g         1
        a2u        12
        eg         20
        eu         20


 Forming initial guess at       2.6s


 Loading old vectors from job with title :

disilane, Si2H6


      Symmetry analysis of molecular orbitals - initial
      -------------------------------------------------

  Numbering of irreducible representations: 

     1 a1g         2 a1u         3 a2g         4 a2u         5 eg      
     6 eu      

  Orbital symmetries:

     1 a1g         2 a2u         3 a1g         4 a2u         5 a1g     
     6 eu          7 eu          8 eg          9 eg         10 a2u     
    11 a1g        12 a2u        13 eu         14 eu         15 eg      
    16 eg         17 a1g        18 eu         19 eu         20 a2u     
    21 a1g        22 eg         23 eg         24 a2u        25 a1g     
    26 eu         27 eu      


 Starting SCF solution at       2.6s



 ----------------------------------------------
         Quadratically convergent ROHF

 Convergence threshold     :          1.000E-06
 Maximum no. of iterations :           30
 Final Fock-matrix accuracy:          1.000E-08
 ----------------------------------------------


 Integral file          = ./disilane.aoints.0
 Record size in doubles =  65536        No. of integs per rec  =  43688
 Max. records in memory =      4        Max. records in file   =  18321
 No. of bits per label  =      8        No. of bits per value  =     64


 #quartets = 2.966D+04 #integrals = 3.566D+05 #direct =  0.0% #cached =100.0%


File balance: exchanges=     0  moved=     0  time=   0.0


              iter       energy          gnorm     gmax       time
             ----- ------------------- --------- --------- --------
                 1     -581.3391191668  3.91D-03  1.23D-03      2.9
                 2     -581.3391207470  7.03D-06  2.30D-06      2.9
                 3     -581.3391207470  4.23D-08  1.23D-08      3.0


       Final RHF  results 
       ------------------ 

         Total SCF energy =   -581.339120747040
      One-electron energy =   -984.786960190127
      Two-electron energy =    313.367448313845
 Nuclear repulsion energy =     90.080391129243

        Time for solution =      0.7s



       Symmetry analysis of molecular orbitals - final
       -----------------------------------------------

  Numbering of irreducible representations: 

     1 a1g         2 a1u         3 a2g         4 a2u         5 eg      
     6 eu      

  Orbital symmetries:

     1 a1g         2 a2u         3 a1g         4 a2u         5 a1g     
     6 eu          7 eu          8 eg          9 eg         10 a2u     
    11 a1g        12 a2u        13 eu         14 eu         15 eg      
    16 eg         17 a1g        18 eu         19 eu         20 a2u     
    21 a1g        22 eg         23 eg         24 a2u        25 a1g     
    26 eu         27 eu      

             Final eigenvalues
             -----------------

              1      
    1  -68.7809
    2  -68.7809
    3   -6.1316
    4   -6.1315
    5   -4.2375
    6   -4.2374
    7   -4.2374
    8   -4.2373
    9   -4.2373
   10   -4.2369
   11   -0.7576
   12   -0.6794
   13   -0.4982
   14   -0.4982
   15   -0.4709
   16   -0.4709
   17   -0.4022
   18    0.1413
   19    0.1413
   20    0.1488
   21    0.1749
   22    0.1924
   23    0.1924
   24    0.2201
   25    0.3530
   26    0.4030
   27    0.4030

                       ROHF Final Molecular Orbital Analysis
                       -------------------------------------

 Vector    8  Occ=2.000000D+00  E=-4.237313D+00  Symmetry=eg
              MO Center= -1.7D-20, -2.0D-20, -2.3D-16, r^2= 1.5D+00
   Bfn.  Coefficient  Atom+Function         Bfn.  Coefficient  Atom+Function  
  ----- ------------  ---------------      ----- ------------  ---------------
    24      0.638168  2 Si py                 6     -0.638168  1 Si py         
    23     -0.304700  2 Si px                 5      0.304700  1 Si px         

 Vector    9  Occ=2.000000D+00  E=-4.237313D+00  Symmetry=eg
              MO Center=  7.6D-21, -5.1D-21, -4.0D-17, r^2= 1.5D+00
   Bfn.  Coefficient  Atom+Function         Bfn.  Coefficient  Atom+Function  
  ----- ------------  ---------------      ----- ------------  ---------------
     5      0.638168  1 Si px                23     -0.638168  2 Si px         
    24     -0.304700  2 Si py                 6      0.304700  1 Si py         

 Vector   10  Occ=2.000000D+00  E=-4.236926D+00  Symmetry=a2u
              MO Center=  2.3D-21, -1.9D-21, -3.6D-16, r^2= 1.5D+00
   Bfn.  Coefficient  Atom+Function         Bfn.  Coefficient  Atom+Function  
  ----- ------------  ---------------      ----- ------------  ---------------
     7      0.707523  1 Si pz                25      0.707523  2 Si pz         

 Vector   11  Occ=2.000000D+00  E=-7.575740D-01  Symmetry=a1g
              MO Center= -1.3D-17,  2.1D-17, -8.0D-17, r^2= 3.1D+00
   Bfn.  Coefficient  Atom+Function         Bfn.  Coefficient  Atom+Function  
  ----- ------------  ---------------      ----- ------------  ---------------
     3      0.311123  1 Si s                 21      0.311123  2 Si s          
     4      0.182248  1 Si s                 22      0.182248  2 Si s          

 Vector   12  Occ=2.000000D+00  E=-6.793505D-01  Symmetry=a2u
              MO Center=  2.4D-18,  3.1D-17, -1.5D-16, r^2= 4.3D+00
   Bfn.  Coefficient  Atom+Function         Bfn.  Coefficient  Atom+Function  
  ----- ------------  ---------------      ----- ------------  ---------------
     3      0.279899  1 Si s                 21     -0.279899  2 Si s          
    22     -0.179511  2 Si s                  4      0.179511  1 Si s          

 Vector   13  Occ=2.000000D+00  E=-4.981793D-01  Symmetry=eu
              MO Center= -7.7D-17, -1.7D-16, -2.8D-16, r^2= 4.6D+00
   Bfn.  Coefficient  Atom+Function         Bfn.  Coefficient  Atom+Function  
  ----- ------------  ---------------      ----- ------------  ---------------
    62      0.247073  8 H  s                 42     -0.247073  4 H  s          
    27     -0.225542  2 Si py                 9     -0.225542  1 Si py         

 Vector   14  Occ=2.000000D+00  E=-4.981793D-01  Symmetry=eu
              MO Center= -5.8D-16,  1.5D-16,  1.4D-15, r^2= 4.6D+00
   Bfn.  Coefficient  Atom+Function         Bfn.  Coefficient  Atom+Function  
  ----- ------------  ---------------      ----- ------------  ---------------
    26      0.225542  2 Si px                 8      0.225542  1 Si px         
    47     -0.217229  5 H  s                 57      0.217229  7 H  s          
    37      0.210714  3 H  s                 52     -0.210714  6 H  s          

 Vector   15  Occ=2.000000D+00  E=-4.708535D-01  Symmetry=eg
              MO Center=  1.2D-15,  1.3D-15,  1.5D-15, r^2= 4.9D+00
   Bfn.  Coefficient  Atom+Function         Bfn.  Coefficient  Atom+Function  
  ----- ------------  ---------------      ----- ------------  ---------------
    47      0.260547  5 H  s                 57      0.260547  7 H  s          
     8     -0.220224  1 Si px                26      0.220224  2 Si px         
    48      0.169415  5 H  s                 58      0.169415  7 H  s          

 Vector   16  Occ=2.000000D+00  E=-4.708535D-01  Symmetry=eg
              MO Center= -5.0D-17, -2.7D-18, -3.1D-16, r^2= 4.9D+00
   Bfn.  Coefficient  Atom+Function         Bfn.  Coefficient  Atom+Function  
  ----- ------------  ---------------      ----- ------------  ---------------
    62      0.235746  8 H  s                 42      0.235746  4 H  s          
     9      0.220224  1 Si py                27     -0.220224  2 Si py         
    52     -0.215534  6 H  s                 37     -0.215534  3 H  s          
    43      0.153289  4 H  s                 63      0.153289  8 H  s          

 Vector   17  Occ=2.000000D+00  E=-4.021660D-01  Symmetry=a1g
              MO Center=  5.7D-17,  1.7D-16,  2.6D-17, r^2= 3.0D+00
   Bfn.  Coefficient  Atom+Function         Bfn.  Coefficient  Atom+Function  
  ----- ------------  ---------------      ----- ------------  ---------------
    28      0.331647  2 Si pz                10     -0.331647  1 Si pz         
    13     -0.194664  1 Si pz                31      0.194664  2 Si pz         

 Vector   18  Occ=0.000000D+00  E= 1.413112D-01  Symmetry=eu
              MO Center=  2.1D-16, -6.8D-17, -2.3D-15, r^2= 4.6D+00
   Bfn.  Coefficient  Atom+Function         Bfn.  Coefficient  Atom+Function  
  ----- ------------  ---------------      ----- ------------  ---------------
    63      0.775498  8 H  s                 43     -0.775498  4 H  s          
    12      0.751780  1 Si py                30      0.751780  2 Si py         
    58     -0.580467  7 H  s                 48      0.580467  5 H  s          
    29      0.451910  2 Si px                11      0.451910  1 Si px         
    38      0.195032  3 H  s                 53     -0.195032  6 H  s          

 Vector   19  Occ=0.000000D+00  E= 1.413112D-01  Symmetry=eu
              MO Center=  9.3D-15, -7.9D-16, -3.7D-15, r^2= 4.6D+00
   Bfn.  Coefficient  Atom+Function         Bfn.  Coefficient  Atom+Function  
  ----- ------------  ---------------      ----- ------------  ---------------
    38      0.782867  3 H  s                 53     -0.782867  6 H  s          
    11     -0.751780  1 Si px                29     -0.751780  2 Si px         
    48     -0.560336  5 H  s                 58      0.560336  7 H  s          
    30      0.451910  2 Si py                12      0.451910  1 Si py         
    63      0.222531  8 H  s                 43     -0.222531  4 H  s          

 Vector   20  Occ=0.000000D+00  E= 1.487672D-01  Symmetry=a2u
              MO Center=  7.4D-18,  1.6D-17, -7.5D-16, r^2= 7.2D+00
   Bfn.  Coefficient  Atom+Function         Bfn.  Coefficient  Atom+Function  
  ----- ------------  ---------------      ----- ------------  ---------------
     4      1.444235  1 Si s                 22     -1.444235  2 Si s          
    13     -1.372544  1 Si pz                31     -1.372544  2 Si pz         

 Vector   21  Occ=0.000000D+00  E= 1.749390D-01  Symmetry=a1g
              MO Center=  4.8D-16, -2.0D-16,  3.2D-15, r^2= 7.0D+00
   Bfn.  Coefficient  Atom+Function         Bfn.  Coefficient  Atom+Function  
  ----- ------------  ---------------      ----- ------------  ---------------
    22      1.466849  2 Si s                  4      1.466849  1 Si s          
    53     -0.779596  6 H  s                 48     -0.779596  5 H  s          
    43     -0.779596  4 H  s                 63     -0.779596  8 H  s          
    58     -0.779596  7 H  s                 38     -0.779596  3 H  s          
    13      0.775915  1 Si pz                31     -0.775915  2 Si pz         

 Vector   22  Occ=0.000000D+00  E= 1.923779D-01  Symmetry=eg
              MO Center= -3.6D-15, -3.8D-15, -4.1D-15, r^2= 6.4D+00
   Bfn.  Coefficient  Atom+Function         Bfn.  Coefficient  Atom+Function  
  ----- ------------  ---------------      ----- ------------  ---------------
    29      1.263798  2 Si px                11     -1.263798  1 Si px         
    12     -1.163674  1 Si py                30      1.163674  2 Si py         
    58     -1.092488  7 H  s                 48     -1.092488  5 H  s          
    43      1.041667  4 H  s                 63      1.041667  8 H  s          

 Vector   23  Occ=0.000000D+00  E= 1.923779D-01  Symmetry=eg
              MO Center=  6.9D-17,  1.6D-15,  7.2D-15, r^2= 6.4D+00
   Bfn.  Coefficient  Atom+Function         Bfn.  Coefficient  Atom+Function  
  ----- ------------  ---------------      ----- ------------  ---------------
    12      1.263798  1 Si py                30     -1.263798  2 Si py         
    38      1.232155  3 H  s                 53      1.232155  6 H  s          
    11     -1.163674  1 Si px                29      1.163674  2 Si px         
    43     -0.660090  4 H  s                 63     -0.660090  8 H  s          
    48     -0.572064  5 H  s                 58     -0.572064  7 H  s          

 Vector   24  Occ=0.000000D+00  E= 2.201338D-01  Symmetry=a2u
              MO Center=  2.8D-16, -1.4D-15, -3.1D-15, r^2= 7.7D+00
   Bfn.  Coefficient  Atom+Function         Bfn.  Coefficient  Atom+Function  
  ----- ------------  ---------------      ----- ------------  ---------------
    22      1.853514  2 Si s                  4     -1.853514  1 Si s          
    53     -0.956338  6 H  s                 38      0.956338  3 H  s          
    63     -0.956338  8 H  s                 58     -0.956338  7 H  s          
    48      0.956338  5 H  s                 43      0.956338  4 H  s          
    31     -0.608588  2 Si pz                13     -0.608588  1 Si pz         

 Vector   25  Occ=0.000000D+00  E= 3.529931D-01  Symmetry=a1g
              MO Center= -8.6D-16, -4.3D-15,  1.4D-14, r^2= 7.8D+00
   Bfn.  Coefficient  Atom+Function         Bfn.  Coefficient  Atom+Function  
  ----- ------------  ---------------      ----- ------------  ---------------
    13      0.519267  1 Si pz                31     -0.519267  2 Si pz         
    10     -0.514024  1 Si pz                28      0.514024  2 Si pz         
    21     -0.396678  2 Si s                  3     -0.396678  1 Si s          
    53      0.309729  6 H  s                 38      0.309729  3 H  s          
    48      0.309729  5 H  s                 58      0.309729  7 H  s          

 Vector   26  Occ=0.000000D+00  E= 4.030088D-01  Symmetry=eu
              MO Center= -1.2D-15, -3.1D-15,  4.0D-15, r^2= 6.6D+00
   Bfn.  Coefficient  Atom+Function         Bfn.  Coefficient  Atom+Function  
  ----- ------------  ---------------      ----- ------------  ---------------
     8      0.638323  1 Si px                26      0.638323  2 Si px         
    48      0.590984  5 H  s                 58     -0.590984  7 H  s          
    63      0.327849  8 H  s                 43     -0.327849  4 H  s          
    38     -0.263135  3 H  s                 53      0.263135  6 H  s          
    29     -0.253810  2 Si px                11     -0.253810  1 Si px         

 Vector   27  Occ=0.000000D+00  E= 4.030088D-01  Symmetry=eu
              MO Center= -1.1D-14,  7.0D-15, -4.0D-14, r^2= 6.6D+00
   Bfn.  Coefficient  Atom+Function         Bfn.  Coefficient  Atom+Function  
  ----- ------------  ---------------      ----- ------------  ---------------
    27      0.638323  2 Si py                 9      0.638323  1 Si py         
    53     -0.530488  6 H  s                 38      0.530488  3 H  s          
    63      0.493126  8 H  s                 43     -0.493126  4 H  s          
    30     -0.253810  2 Si py                12     -0.253810  1 Si py         
    26     -0.215036  2 Si px                 8     -0.215036  1 Si px         

 Vector   28  Occ=0.000000D+00  E= 4.359724D-01  Symmetry=eg
              MO Center= -1.4D-14,  3.3D-14,  2.5D-14, r^2= 7.2D+00
   Bfn.  Coefficient  Atom+Function         Bfn.  Coefficient  Atom+Function  
  ----- ------------  ---------------      ----- ------------  ---------------
     9      0.613774  1 Si py                27     -0.613774  2 Si py         
    43     -0.582173  4 H  s                 63     -0.582173  8 H  s          
    30      0.424698  2 Si py                12     -0.424698  1 Si py         
    48      0.331390  5 H  s                 58      0.331390  7 H  s          
    53      0.250783  6 H  s                 38      0.250783  3 H  s          

 Vector   29  Occ=0.000000D+00  E= 4.359724D-01  Symmetry=eg
              MO Center=  3.0D-14, -7.8D-15, -1.6D-14, r^2= 7.2D+00
   Bfn.  Coefficient  Atom+Function         Bfn.  Coefficient  Atom+Function  
  ----- ------------  ---------------      ----- ------------  ---------------
     8      0.613774  1 Si px                26     -0.613774  2 Si px         
    38     -0.527446  3 H  s                 53     -0.527446  6 H  s          
    58      0.480907  7 H  s                 48      0.480907  5 H  s          
    11     -0.424698  1 Si px                29      0.424698  2 Si px         
    32     -0.219599  2 Si d -2              14     -0.219599  1 Si d -2       

 Vector   30  Occ=0.000000D+00  E= 4.632015D-01  Symmetry=eu
              MO Center=  4.3D-15, -4.9D-14, -3.7D-14, r^2= 4.0D+00
   Bfn.  Coefficient  Atom+Function         Bfn.  Coefficient  Atom+Function  
  ----- ------------  ---------------      ----- ------------  ---------------
    63      0.542825  8 H  s                 43     -0.542825  4 H  s          
    48      0.491074  5 H  s                 58     -0.491074  7 H  s          
    33     -0.453406  2 Si d -1              15      0.453406  1 Si d -1       
    12      0.393344  1 Si py                30      0.393344  2 Si py         
    35      0.381061  2 Si d  1              17     -0.381061  1 Si d  1       

 Vector   31  Occ=0.000000D+00  E= 4.632015D-01  Symmetry=eu
              MO Center= -1.3D-14,  3.3D-14, -3.0D-14, r^2= 4.0D+00
   Bfn.  Coefficient  Atom+Function         Bfn.  Coefficient  Atom+Function  
  ----- ------------  ---------------      ----- ------------  ---------------
    53      0.596922  6 H  s                 38     -0.596922  3 H  s          
    35      0.453406  2 Si d  1              17     -0.453406  1 Si d  1       
    11      0.393344  1 Si px                29      0.393344  2 Si px         
    33      0.381061  2 Si d -1              15     -0.381061  1 Si d -1       
    58     -0.343279  7 H  s                 48      0.343279  5 H  s          

 Vector   32  Occ=0.000000D+00  E= 4.803108D-01  Symmetry=a2u
              MO Center=  6.6D-15,  8.7D-15, -2.0D-15, r^2= 6.3D+00
   Bfn.  Coefficient  Atom+Function         Bfn.  Coefficient  Atom+Function  
  ----- ------------  ---------------      ----- ------------  ---------------
    31      1.390124  2 Si pz                13      1.390124  1 Si pz         
    28     -0.745795  2 Si pz                10     -0.745795  1 Si pz         
    22      0.544557  2 Si s                  4     -0.544557  1 Si s          
    16     -0.295577  1 Si d  0              34      0.295577  2 Si d  0       
    42     -0.180226  4 H  s                 37     -0.180226  3 H  s          

 Vector   33  Occ=0.000000D+00  E= 5.244092D-01  Symmetry=a1g
              MO Center=  1.8D-15,  8.8D-16, -2.6D-14, r^2= 4.7D+00
   Bfn.  Coefficient  Atom+Function         Bfn.  Coefficient  Atom+Function  
  ----- ------------  ---------------      ----- ------------  ---------------
     4      2.557544  1 Si s                 22      2.557544  2 Si s          
     3     -1.228325  1 Si s                 21     -1.228325  2 Si s          
     2     -0.834697  1 Si s                 20     -0.834697  2 Si s          
    43     -0.622856  4 H  s                 63     -0.622856  8 H  s          
    58     -0.622856  7 H  s                 53     -0.622856  6 H  s          


 center of mass
 --------------
 x =   0.00000000 y =   0.00000000 z =   0.00000000

 moments of inertia (a.u.)
 ------------------
         362.154976610554           0.000000000000           0.000000000000
           0.000000000000         362.154976610554           0.000000000000
           0.000000000000           0.000000000000          42.486106681965

  Mulliken analysis of the total density
  --------------------------------------

    Atom       Charge   Shell Charges
 -----------   ------   -------------------------------------------------------
    1 Si  14    13.69   2.00  2.01  0.73  0.45  6.00  1.49  0.80  0.21
    2 Si  14    13.69   2.00  2.01  0.73  0.45  6.00  1.49  0.80  0.21
    3 H    1     1.10   0.72  0.37  0.01
    4 H    1     1.10   0.72  0.37  0.01
    5 H    1     1.10   0.72  0.37  0.01
    6 H    1     1.10   0.72  0.37  0.01
    7 H    1     1.10   0.72  0.37  0.01
    8 H    1     1.10   0.72  0.37  0.01

       Multipole analysis of the density wrt the origin
       ------------------------------------------------

     L   x y z        total         open         nuclear
     -   - - -        -----         ----         -------
     0   0 0 0      0.000000      0.000000     34.000000

     1   1 0 0      0.000000      0.000000      0.000000
     1   0 1 0      0.000000      0.000000      0.000000
     1   0 0 1      0.000000      0.000000      0.000000

     2   2 0 0    -23.865361      0.000000     21.078117
     2   1 1 0      0.000000      0.000000      0.000000
     2   1 0 1      0.000000      0.000000      0.000000
     2   0 2 0    -23.865361      0.000000     21.078117
     2   0 1 1      0.000000      0.000000      0.000000
     2   0 0 2    -24.787851      0.000000    201.098349


 Parallel integral file used      11 records with       0 large values

                               NWChem RI-MP2 Module
                               --------------------
                                  disilane, Si2H6



 SCF Reference Information:
            File: './disilane.movecs'
           Title: 'disilane, Si2H6'
    Size (AOxMO):     66 x     66
       Total Occ:              34.00
 RI-MP2 Calculation Information:
          Nr. of AO basis functions:         66
     Nr. of fitting basis functions:        236
               Nr. of MO spin cases:          1
        Nr. of MOs to be correlated:         56
     Nr. of occupied MOs correlated:          7
      Nr. of virtual MOs correlated:         49

          RI integral approximation: 'V'
    Threshold for Schwarz screening:  1.000E-09
 Smallest eigenvalue retained in fit  1.000E-08
     Base file name for MO integrals 'mo3cint'
    Type of storage for MO integrals 'EAF library'

 Transformation block size    7, requiring     1 integral passes.
 XForm_3cInts: Completed     1:    7 pass.             @Mon Nov 29 18:09:42 2010
 Energy evaluation using block sizes     7    7
 RIMP2_V_E2: Approx. ints. done (    1:    7,    1:    7) @Mon Nov 29 18:09:42 2010
 RIMP2_V_E2: Copy to B done (    1:    7,    1:    7)  @Mon Nov 29 18:09:42 2010
 RIMP2_V_E2: Denominators done (    1:    7,    1:    7) @Mon Nov 29 18:09:42 2010
 RIMP2_V_E2: Completed block (    1:    7,    1:    7) @Mon Nov 29 18:09:42 2010


          -------------------------------------------
          SCF energy                -581.339120747040
          Correlation energy          -0.213940766485
          Total MP2 energy          -581.553061513525
          -------------------------------------------

 -----------------------
 Performance information
 -----------------------

 Timer overhead =  5.00D-07 seconds/call

               Nr. of calls         CPU time (s)                 Wall time (s)                GFlops
             ---------------    -------------------     ------------------------------   -------------------
Name         Min   Avg   Max    Min     Avg     Max     Min     Avg     Max   Mx/calls   Min     Max     Sum
Overall       1     1     1    1.1     1.2     1.2      1.3     1.3     1.3     1.3      0.0     0.0     0.0   
3c integr     1     1     1   0.23    0.23    0.23     0.23    0.23    0.23    0.23      0.0     0.0     0.0   
Energy        1     1     1   8.00E-3 8.75E-3 9.00E-3  9.38E-3 9.38E-3 9.38E-3 9.38E-3   0.0     0.0     0.0   
3c integr     1     1     1   0.21    0.22    0.22     0.21    0.22    0.22    0.22      0.0     0.0     0.0   
First 2/3     3     3     3   2.00E-3 2.75E-3 3.00E-3  2.76E-3 2.93E-3 3.05E-3 1.02E-3   0.0     0.0     0.0   
Final 1/3     1     1     1   5.00E-3 5.00E-3 5.00E-3  5.09E-3 5.09E-3 5.09E-3 5.09E-3   0.0     0.0     0.0   
Write 3c      1     1     1    0.0     0.0     0.0     5.21E-4 5.66E-4 5.86E-4 5.86E-4   0.0     0.0     0.0   
Read 3c i     1     1     1    0.0     0.0     0.0     1.79E-4 1.88E-4 1.99E-4 1.99E-4   0.0     0.0     0.0   
Fitting b     1     1     1   8.30E-2 8.45E-2 8.60E-2  8.73E-2 8.73E-2 8.73E-2 8.73E-2   0.0     0.0     0.0   
Schwarz i     1     1     1   1.80E-2 2.02E-2 2.10E-2  2.09E-2 2.09E-2 2.09E-2 2.09E-2   0.0     0.0     0.0   
Form 4ci      1     1     1   7.00E-3 7.00E-3 7.00E-3  6.69E-3 6.70E-3 6.70E-3 6.70E-3   0.0     0.0     0.0   
Form A &      1     1     1   1.00E-3 1.00E-3 1.00E-3  4.92E-4 4.93E-4 4.93E-4 4.93E-4   0.0     0.0     0.0   
Denominat     1     1     1    0.0     0.0     0.0     2.71E-4 2.72E-4 2.75E-4 2.75E-4   0.0     0.0     0.0   
Pair Ener     1     1     1    0.0     0.0     0.0     2.29E-5 1.89E-4 3.20E-4 3.20E-4   0.0     0.0     0.0   

 The average no. of pstat calls per process was 1.60D+01
 with a timing overhead of 8.00D-06s

 step     1 energy        -581.55306151
                                 NWChem SCF Module
                                 -----------------


                                  disilane, Si2H6



  ao basis        = "ao basis"
  functions       =    66
  atoms           =     8
  closed shells   =    17
  open shells     =     0
  charge          =   0.00
  wavefunction    = RHF 
  input vectors   = ./disilane.movecs
  output vectors  = ./disilane.movecs
  use symmetry    = T
  symmetry adapt  = T


 Summary of "ao basis" -> "ao basis" (spherical)
 ------------------------------------------------------------------------------
       Tag                 Description            Shells   Functions and Types
 ---------------- ------------------------------  ------  ---------------------
 H                          cc-pvdz                  3        5   2s1p
 Si                         cc-pvdz                  8       18   4s3p1d


      Symmetry analysis of basis
      --------------------------

        a1g        12
        a1u         1
        a2g         1
        a2u        12
        eg         20
        eu         20


 Forming initial guess at       3.9s


 Loading old vectors from job with title :

disilane, Si2H6


      Symmetry analysis of molecular orbitals - initial
      -------------------------------------------------

  Numbering of irreducible representations: 

     1 a1g         2 a1u         3 a2g         4 a2u         5 eg      
     6 eu      

  Orbital symmetries:

     1 a1g         2 a2u         3 a1g         4 a2u         5 a1g     
     6 eu          7 eu          8 eg          9 eg         10 a2u     
    11 a1g        12 a2u        13 eu         14 eu         15 eg      
    16 eg         17 a1g        18 eu         19 eu         20 a2u     
    21 a1g        22 eg         23 eg         24 a2u        25 a1g     
    26 eu         27 eu      


 Starting SCF solution at       3.9s



 ----------------------------------------------
         Quadratically convergent ROHF

 Convergence threshold     :          1.000E-06
 Maximum no. of iterations :           30
 Final Fock-matrix accuracy:          1.000E-08
 ----------------------------------------------


 Integral file          = ./disilane.aoints.0
 Record size in doubles =  65536        No. of integs per rec  =  43688
 Max. records in memory =      4        Max. records in file   =  18321
 No. of bits per label  =      8        No. of bits per value  =     64


 #quartets = 2.966D+04 #integrals = 3.567D+05 #direct =  0.0% #cached =100.0%


File balance: exchanges=     0  moved=     0  time=   0.0


              iter       energy          gnorm     gmax       time
             ----- ------------------- --------- --------- --------
                 1     -581.3391700982  3.93D-03  1.23D-03      4.0
                 2     -581.3391716849  6.98D-06  2.48D-06      4.1
                 3     -581.3391716849  4.42D-08  1.29D-08      4.1


       Final RHF  results 
       ------------------ 

         Total SCF energy =   -581.339171684924
      One-electron energy =   -984.984823498467
      Two-electron energy =    313.471112651123
 Nuclear repulsion energy =     90.174539162421

        Time for solution =      0.7s



       Symmetry analysis of molecular orbitals - final
       -----------------------------------------------

  Numbering of irreducible representations: 

     1 a1g         2 a1u         3 a2g         4 a2u         5 eg      
     6 eu      

  Orbital symmetries:

     1 a1g         2 a2u         3 a1g         4 a2u         5 a1g     
     6 eu          7 eu          8 eg          9 eg         10 a2u     
    11 a1g        12 a2u        13 eu         14 eu         15 eg      
    16 eg         17 a1g        18 eu         19 eu         20 a2u     
    21 a1g        22 eg         23 eg         24 a2u        25 a1g     
    26 eu         27 eu      

             Final eigenvalues
             -----------------

              1      
    1  -68.7799
    2  -68.7799
    3   -6.1308
    4   -6.1307
    5   -4.2367
    6   -4.2366
    7   -4.2366
    8   -4.2365
    9   -4.2365
   10   -4.2361
   11   -0.7582
   12   -0.6803
   13   -0.4986
   14   -0.4986
   15   -0.4714
   16   -0.4714
   17   -0.4023
   18    0.1416
   19    0.1416
   20    0.1489
   21    0.1760
   22    0.1928
   23    0.1928
   24    0.2216
   25    0.3529
[...]
 Smallest eigenvalue retained in fit  1.000E-08
     Base file name for MO integrals 'mo3cint'
    Type of storage for MO integrals 'EAF library'

 Transformation block size    7, requiring     1 integral passes.
 XForm_3cInts: Completed     1:    7 pass.             @Mon Nov 29 18:10:08 2010
 Energy evaluation using block sizes     7    7
 RIMP2_V_E2: Approx. ints. done (    1:    7,    1:    7) @Mon Nov 29 18:10:08 2010
 RIMP2_V_E2: Copy to B done (    1:    7,    1:    7)  @Mon Nov 29 18:10:08 2010
 RIMP2_V_E2: Denominators done (    1:    7,    1:    7) @Mon Nov 29 18:10:08 2010
 RIMP2_V_E2: Completed block (    1:    7,    1:    7) @Mon Nov 29 18:10:08 2010


          -------------------------------------------
          SCF energy                -581.339108923612
          Correlation energy          -0.213969579110
          Total MP2 energy          -581.553078502722
          -------------------------------------------

 -----------------------
 Performance information
 -----------------------

 Timer overhead =  3.00D-07 seconds/call

               Nr. of calls         CPU time (s)                 Wall time (s)                GFlops
             ---------------    -------------------     ------------------------------   -------------------
Name         Min   Avg   Max    Min     Avg     Max     Min     Avg     Max   Mx/calls   Min     Max     Sum
Overall       1     1     1    1.1     1.2     1.2      1.3     1.3     1.3     1.3      0.0     0.0     0.0   
3c integr     1     1     1   0.22    0.23    0.23     0.23    0.23    0.23    0.23      0.0     0.0     0.0   
Energy        1     1     1   7.00E-3 9.00E-3 1.00E-2  9.40E-3 9.40E-3 9.40E-3 9.40E-3   0.0     0.0     0.0   
3c integr     1     1     1   0.21    0.22    0.22     0.21    0.22    0.23    0.23      0.0     0.0     0.0   
First 2/3     3     3     3   2.00E-3 2.75E-3 3.00E-3  2.77E-3 2.91E-3 3.05E-3 1.02E-3   0.0     0.0     0.0   
Final 1/3     1     1     1   5.00E-3 5.00E-3 5.00E-3  5.05E-3 5.05E-3 5.05E-3 5.05E-3   0.0     0.0     0.0   
Write 3c      1     1     1    0.0     0.0     0.0     5.15E-4 5.51E-4 5.76E-4 5.76E-4   0.0     0.0     0.0   
Read 3c i     1     1     1    0.0    5.00E-4 1.00E-3  1.87E-4 1.94E-4 2.05E-4 2.05E-4   0.0     0.0     0.0   
Fitting b     1     1     1   8.30E-2 8.40E-2 8.50E-2  8.62E-2 8.62E-2 8.62E-2 8.62E-2   0.0     0.0     0.0   
Schwarz i     1     1     1   1.70E-2 1.92E-2 2.10E-2  2.11E-2 2.11E-2 2.11E-2 2.11E-2   0.0     0.0     0.0   
Form 4ci      1     1     1   7.00E-3 7.00E-3 7.00E-3  6.70E-3 6.70E-3 6.70E-3 6.70E-3   0.0     0.0     0.0   
Form A &      1     1     1    0.0     0.0     0.0     4.84E-4 4.85E-4 4.86E-4 4.86E-4   0.0     0.0     0.0   
Denominat     1     1     1    0.0    5.00E-4 1.00E-3  2.70E-4 2.74E-4 2.78E-4 2.78E-4   0.0     0.0     0.0   
Pair Ener     1     1     1    0.0     0.0     0.0     2.29E-5 1.89E-4 3.20E-4 3.20E-4   0.0     0.0     0.0   

 The average no. of pstat calls per process was 1.60D+01
 with a timing overhead of 4.80D-06s

 step    -3 energy        -581.55307850
            gradient         0.000005


                         RIMP2 ENERGY GRADIENTS

    atom               coordinates                        gradient
                 x          y          z           x          y          z
   1 Si      0.000000   0.000000   2.231726    0.000000   0.000000   0.000004
   2 Si      0.000000   0.000000  -2.231726    0.000000   0.000000  -0.000004
   3 H       1.868266  -1.868266   3.203774    0.000001  -0.000001   0.000004
   4 H       0.683833   2.552098   3.203774    0.000000   0.000001   0.000004
   5 H      -2.552098  -0.683833   3.203774   -0.000001   0.000000   0.000004
   6 H      -1.868266   1.868266  -3.203774   -0.000001   0.000001  -0.000004
   7 H       2.552098   0.683833  -3.203774    0.000001   0.000000  -0.000004
   8 H      -0.683833  -2.552098  -3.203774    0.000000  -0.000001  -0.000004



 Deleting state for rimp2 with suffix numg
        ./disilane.movecs


  Step       Energy      Delta E   Gmax     Grms     Xrms     Xmax   Walltime
  ---- ---------------- -------- -------- -------- -------- -------- --------
@    2    -581.55309538 -4.5D-09  0.00001  0.00000  0.00008  0.00015     29.6
                                     ok       ok       ok       ok  



                                Z-matrix (autoz)
                                -------- 

 Units are Angstrom for bonds and degrees for angles

      Type          Name      I     J     K     L     M      Value     Gradient
      ----------- --------  ----- ----- ----- ----- ----- ---------- ----------
    1 Stretch                  1     2                       2.36196    0.00001
    2 Stretch                  1     3                       1.48977    0.00000
    3 Stretch                  1     4                       1.48977    0.00000
    4 Stretch                  1     5                       1.48977    0.00000
    5 Stretch                  2     6                       1.48977    0.00000
    6 Stretch                  2     7                       1.48977    0.00000
    7 Stretch                  2     8                       1.48977    0.00000
    8 Bend                     1     2     6               110.19875    0.00000
    9 Bend                     1     2     7               110.19875    0.00000
   10 Bend                     1     2     8               110.19875    0.00000
   11 Bend                     2     1     3               110.19875    0.00000
   12 Bend                     2     1     4               110.19875    0.00000
   13 Bend                     2     1     5               110.19875    0.00000
   14 Bend                     3     1     4               108.73399    0.00000
   15 Bend                     3     1     5               108.73399    0.00000
   16 Bend                     4     1     5               108.73399    0.00000
   17 Bend                     6     2     7               108.73399    0.00000
   18 Bend                     6     2     8               108.73399    0.00000
   19 Bend                     7     2     8               108.73399    0.00000
   20 Torsion                  3     1     2     6         180.00000    0.00000
   21 Torsion                  3     1     2     7         -60.00000    0.00000
   22 Torsion                  3     1     2     8          60.00000    0.00000
   23 Torsion                  4     1     2     6         -60.00000    0.00000
   24 Torsion                  4     1     2     7          60.00000    0.00000
   25 Torsion                  4     1     2     8         180.00000    0.00000
   26 Torsion                  5     1     2     6          60.00000    0.00000
   27 Torsion                  5     1     2     7         180.00000    0.00000
   28 Torsion                  5     1     2     8         -60.00000    0.00000


      ----------------------
      Optimization converged
      ----------------------


  Step       Energy      Delta E   Gmax     Grms     Xrms     Xmax   Walltime
  ---- ---------------- -------- -------- -------- -------- -------- --------
@    2    -581.55309538 -4.5D-09  0.00001  0.00000  0.00008  0.00015     29.6
                                     ok       ok       ok       ok  



                                Z-matrix (autoz)
                                -------- 

 Units are Angstrom for bonds and degrees for angles

      Type          Name      I     J     K     L     M      Value     Gradient
      ----------- --------  ----- ----- ----- ----- ----- ---------- ----------
    1 Stretch                  1     2                       2.36196    0.00001
    2 Stretch                  1     3                       1.48977    0.00000
    3 Stretch                  1     4                       1.48977    0.00000
    4 Stretch                  1     5                       1.48977    0.00000
    5 Stretch                  2     6                       1.48977    0.00000
    6 Stretch                  2     7                       1.48977    0.00000
    7 Stretch                  2     8                       1.48977    0.00000
    8 Bend                     1     2     6               110.19875    0.00000
    9 Bend                     1     2     7               110.19875    0.00000
   10 Bend                     1     2     8               110.19875    0.00000
   11 Bend                     2     1     3               110.19875    0.00000
   12 Bend                     2     1     4               110.19875    0.00000
   13 Bend                     2     1     5               110.19875    0.00000
   14 Bend                     3     1     4               108.73399    0.00000
   15 Bend                     3     1     5               108.73399    0.00000
   16 Bend                     4     1     5               108.73399    0.00000
   17 Bend                     6     2     7               108.73399    0.00000
   18 Bend                     6     2     8               108.73399    0.00000
   19 Bend                     7     2     8               108.73399    0.00000
   20 Torsion                  3     1     2     6         180.00000    0.00000
   21 Torsion                  3     1     2     7         -60.00000    0.00000
   22 Torsion                  3     1     2     8          60.00000    0.00000
   23 Torsion                  4     1     2     6         -60.00000    0.00000
   24 Torsion                  4     1     2     7          60.00000    0.00000
   25 Torsion                  4     1     2     8         180.00000    0.00000
   26 Torsion                  5     1     2     6          60.00000    0.00000
   27 Torsion                  5     1     2     7         180.00000    0.00000
   28 Torsion                  5     1     2     8         -60.00000    0.00000



                         Geometry "geometry" -> "geometry"
                         ---------------------------------

 Output coordinates in angstroms (scale by  1.889725989 to convert to a.u.)

  No.       Tag          Charge          X              Y              Z
 ---- ---------------- ---------- -------------- -------------- --------------
    1 Si                  14.0000     0.00000000     0.00000000     1.18097848
    2 Si                  14.0000     0.00000000     0.00000000    -1.18097848
    3 H                    1.0000     0.98864372    -0.98864372     1.69536425
    4 H                    1.0000     0.36186872     1.35051244     1.69536425
    5 H                    1.0000    -1.35051244    -0.36186872     1.69536425
    6 H                    1.0000    -0.98864372     0.98864372    -1.69536425
    7 H                    1.0000     1.35051244     0.36186872    -1.69536425
    8 H                    1.0000    -0.36186872    -1.35051244    -1.69536425

      Atomic Mass 
      ----------- 

      Si                27.976930
      H                  1.007825


 Effective nuclear repulsion energy (a.u.)      90.1864775386

            Nuclear Dipole moment (a.u.) 
            ----------------------------
        X                 Y               Z
 ---------------- ---------------- ----------------
     0.0000000000     0.0000000000     0.0000000000

      Symmetry information
      --------------------

 Group name             D3d       
 Group number             33
 Group order              12
 No. of unique centers     2

      Symmetry unique atoms

     1    3


                Final and change from initial internal coordinates
                --------------------------------------------------



                                Z-matrix (autoz)
                                -------- 

 Units are Angstrom for bonds and degrees for angles

      Type          Name      I     J     K     L     M      Value       Change
      ----------- --------  ----- ----- ----- ----- ----- ---------- ----------
    1 Stretch                  1     2                       2.36196   -0.00089
    2 Stretch                  1     3                       1.48977   -0.00183
    3 Stretch                  1     4                       1.48977   -0.00183
    4 Stretch                  1     5                       1.48977   -0.00183
    5 Stretch                  2     6                       1.48977   -0.00183
    6 Stretch                  2     7                       1.48977   -0.00183
    7 Stretch                  2     8                       1.48977   -0.00183
    8 Bend                     1     2     6               110.19875    0.07151
    9 Bend                     1     2     7               110.19875    0.07151
   10 Bend                     1     2     8               110.19875    0.07151
   11 Bend                     2     1     3               110.19875    0.07151
   12 Bend                     2     1     4               110.19875    0.07151
   13 Bend                     2     1     5               110.19875    0.07151
   14 Bend                     3     1     4               108.73399   -0.07332
   15 Bend                     3     1     5               108.73399   -0.07332
   16 Bend                     4     1     5               108.73399   -0.07332
   17 Bend                     6     2     7               108.73399   -0.07332
   18 Bend                     6     2     8               108.73399   -0.07332
   19 Bend                     7     2     8               108.73399   -0.07332
   20 Torsion                  3     1     2     6         180.00000    0.00000
   21 Torsion                  3     1     2     7         -60.00000    0.00000
   22 Torsion                  3     1     2     8          60.00000    0.00000
   23 Torsion                  4     1     2     6         -60.00000    0.00000
   24 Torsion                  4     1     2     7          60.00000    0.00000
   25 Torsion                  4     1     2     8         180.00000    0.00000
   26 Torsion                  5     1     2     6          60.00000    0.00000
   27 Torsion                  5     1     2     7         180.00000    0.00000
   28 Torsion                  5     1     2     8         -60.00000    0.00000

 ==============================================================================
                                internuclear distances
 ------------------------------------------------------------------------------
       center one      |      center two      | atomic units |  angstroms
 ------------------------------------------------------------------------------
    2 Si               |   1 Si               |     4.46345  |     2.36196
    3 H                |   1 Si               |     2.81526  |     1.48977
    4 H                |   1 Si               |     2.81526  |     1.48977
    5 H                |   1 Si               |     2.81526  |     1.48977
    6 H                |   2 Si               |     2.81526  |     1.48977
    7 H                |   2 Si               |     2.81526  |     1.48977
    8 H                |   2 Si               |     2.81526  |     1.48977
 ------------------------------------------------------------------------------
                         number of included internuclear distances:          7
 ==============================================================================



 ==============================================================================
                                 internuclear angles
 ------------------------------------------------------------------------------
        center 1       |       center 2       |       center 3       |  degrees
 ------------------------------------------------------------------------------
    2 Si               |   1 Si               |   3 H                |   110.20
    2 Si               |   1 Si               |   4 H                |   110.20
    2 Si               |   1 Si               |   5 H                |   110.20
    3 H                |   1 Si               |   4 H                |   108.73
    3 H                |   1 Si               |   5 H                |   108.73
    4 H                |   1 Si               |   5 H                |   108.73
    1 Si               |   2 Si               |   6 H                |   110.20
    1 Si               |   2 Si               |   7 H                |   110.20
    1 Si               |   2 Si               |   8 H                |   110.20
    6 H                |   2 Si               |   7 H                |   108.73
    6 H                |   2 Si               |   8 H                |   108.73
    7 H                |   2 Si               |   8 H                |   108.73
 ------------------------------------------------------------------------------
                            number of included internuclear angles:         12
 ==============================================================================




 Task  times  cpu:       24.0s     wall:       27.4s
 Summary of allocated global arrays
-----------------------------------
  No active global arrays



                         GA Statistics for process    0
                         ------------------------------

       create   destroy   get      put      acc     scatter   gather  read&inc
calls: 5368     5368     7.83e+04 3.34e+04 1.03e+05    0        0     8607     
number of processes/call 1.44e+00 1.33e+00 1.04e+00 0.00e+00 0.00e+00
bytes total:             2.13e+08 6.78e+07 4.30e+07 0.00e+00 0.00e+00 6.89e+04
bytes remote:            8.40e+07 2.18e+07 2.58e+07 0.00e+00 0.00e+00 0.00e+00
Max memory consumed for GA by this process: 643600 bytes
MA_summarize_allocated_blocks: starting scan ...
MA_summarize_allocated_blocks: scan completed: 0 heap blocks, 0 stack blocks
MA usage statistics:

	allocation statistics:
					      heap	     stack
					      ----	     -----
	current number of blocks	         0	         0
	maximum number of blocks	        26	        20
	current total bytes		         0	         0
	maximum total bytes		   2134072	  23582536
	maximum total K-bytes		      2135	     23583
	maximum total M-bytes		         3	        24


                                NWChem Input Module
                                -------------------





                                     CITATION
                                     --------
                Please cite the following reference when publishing
                           results obtained with NWChem:

                 M. Valiev, E.J. Bylaska, N. Govind, K. Kowalski,
              T.P. Straatsma, H.J.J. van Dam, D. Wang, J. Nieplocha,
                        E. Apra, T.L. Windus, W.A. de Jong
                 "NWChem: a comprehensive and scalable open-source
                  solution for large scale molecular simulations"
                      Comput. Phys. Commun. 181, 1477 (2010)
                           doi:10.1016/j.cpc.2010.04.018

                              AUTHORS & CONTRIBUTORS
                              ----------------------
      E. J. Bylaska, W. A. de Jong, N. Govind, K. Kowalski, T. P. Straatsma,
     M. Valiev, H. J. J. van Dam, D. Wang, E. Apra, T. L. Windus, J. Hammond,
     J. Autschbach, P. Nichols, S. Hirata, M. T. Hackler, Y. Zhao, P.-D. Fan,
      R. J. Harrison, M. Dupuis, D. M. A. Smith, K. Glaesemann, J. Nieplocha,
      V. Tipparaju, M. Krishnan, A. Vazquez-Mayagoitia, L. Jensen, M. Swart,
      Q. Wu, T. Van Voorhis, A. A. Auer, M. Nooijen, L. D. Crosby, E. Brown,
             G. Cisneros, G. I. Fann, H. Fruchtl, J. Garza, K. Hirao,
        R. Kendall, J. A. Nichols, K. Tsemekhman, K. Wolinski, J. Anchell,
       D. Bernholdt, P. Borowski, T. Clark, D. Clerc, H. Dachsel, M. Deegan,
        K. Dyall, D. Elwood, E. Glendening, M. Gutowski, A. Hess, J. Jaffe,
        B. Johnson, J. Ju, R. Kobayashi, R. Kutteh, Z. Lin, R. Littlefield,
    X. Long, B. Meng, T. Nakajima, S. Niu, L. Pollack, M. Rosing, G. Sandrone,
       M. Stave, H. Taylor, G. Thomas, J. H. van Lenthe, A. Wong, Z. Zhang.

 Total times  cpu:       25.9s     wall:       29.6s
