 argument  1 = butane.nw
 


============================== echo of input deck ==============================
echo
start butane-excit

title "TDDFT on butane"

memory 1000 mb

geometry
symmetry c1
H  1.0000  0.4400  0.0000
C  1.0000  1.5400  0.0000
C  2.4561  2.0414  0.0000
H  0.4800  1.8981  0.9007
H  0.4800  1.8981 -0.9007
H  2.9640  1.6663 -0.9007
H  2.9640  1.6663  0.9007
C  2.4561  3.5814  0.0000
C  3.9122  4.0827  0.0000
H  1.9361  3.9395  0.9007
H  1.9361  3.9395 -0.9007
H  4.4201  3.7076 -0.9007
H  4.4201  3.7076  0.9007
H  3.9122  5.1828  0.0000
end

basis
 C library 6-31G
 H library 6-31G
end

dft
 xc  becke88 1. lyp 1.   # BLYP functional
end

tddft
 nroots 10
 notriplet
end
task tddft energy
================================================================================


                                         
                                         
 
 
              Northwest Computational Chemistry Package (NWChem) 6.0
              ------------------------------------------------------
 
 
                    Environmental Molecular Sciences Laboratory
                       Pacific Northwest National Laboratory
                                Richland, WA 99352
 
                              Copyright (c) 1994-2010
                       Pacific Northwest National Laboratory
                            Battelle Memorial Institute
 
             NWChem is an open-source computational chemistry package
                        distributed under the terms of the
                      Educational Community License (ECL) 2.0
             A copy of the license is included with this distribution
                              in the LICENSE.TXT file
 
                                  ACKNOWLEDGMENT
                                  --------------

            This software and its documentation were developed at the
            EMSL at Pacific Northwest National Laboratory, a multiprogram
            national laboratory, operated for the U.S. Department of Energy
            by Battelle under Contract Number DE-AC05-76RL01830. Support
            for this work was provided by the Department of Energy Office
            of Biological and Environmental Research, Office of Basic
            Energy Sciences, and the Office of Advanced Scientific Computing.


           Job information
           ---------------

    hostname      = curie
    program       = ../../../bin/LINUX64/nwchem
    date          = Tue Nov 16 13:40:47 2010

    compiled      = Mon_Nov_15_10:21:04_2010
    source        = /home/niri/nwchem/nwchem-6.0
    nwchem branch = 6.0
    input         = butane.nw
    prefix        = butane-excit.
    data base     = ./butane-excit.db
    status        = startup
    nproc         =        4
    time left     =     -1s



           Memory information
           ------------------

    heap     =   32768001 doubles =    250.0 Mbytes
    stack    =   32768001 doubles =    250.0 Mbytes
    global   =   65536000 doubles =    500.0 Mbytes (distinct from heap & stack)
    total    =  131072002 doubles =   1000.0 Mbytes
    verify   = yes
    hardfail = no 


           Directory information
           ---------------------
 
  0 permanent = .
  0 scratch   = .
 
 
 
 
                                NWChem Input Module
                                -------------------
 
 
                                  TDDFT on butane
                                  ---------------

 Scaling coordinates for geometry "geometry" by  1.889725989
 (inverse scale =  0.529177249)

 Turning off AUTOSYM since
 SYMMETRY directive was detected!
 

          ------
          auto-z
          ------
 
 
                             Geometry "geometry" -> ""
                             -------------------------
 
 Output coordinates in angstroms (scale by  1.889725989 to convert to a.u.)
 
  No.       Tag          Charge          X              Y              Z
 ---- ---------------- ---------- -------------- -------------- --------------
    1 H                    1.0000    -1.45467647    -2.36937647     0.00000000
    2 C                    6.0000    -1.45467647    -1.26937647     0.00000000
    3 C                    6.0000     0.00142353    -0.76797647     0.00000000
    4 H                    1.0000    -1.97467647    -0.91127647     0.90070000
    5 H                    1.0000    -1.97467647    -0.91127647    -0.90070000
    6 H                    1.0000     0.50932353    -1.14307647    -0.90070000
    7 H                    1.0000     0.50932353    -1.14307647     0.90070000
    8 C                    6.0000     0.00142353     0.77202353     0.00000000
    9 C                    6.0000     1.45752353     1.27332353     0.00000000
   10 H                    1.0000    -0.51857647     1.13012353     0.90070000
   11 H                    1.0000    -0.51857647     1.13012353    -0.90070000
   12 H                    1.0000     1.96542353     0.89822353    -0.90070000
   13 H                    1.0000     1.96542353     0.89822353     0.90070000
   14 H                    1.0000     1.45752353     2.37342353     0.00000000
 
      Atomic Mass 
      ----------- 
 
      H                  1.007825
      C                 12.000000
 

 Effective nuclear repulsion energy (a.u.)     130.7201510400

            Nuclear Dipole moment (a.u.) 
            ----------------------------
        X                 Y               Z
 ---------------- ---------------- ----------------
     0.0000000000     0.0000000000     0.0000000000
 


                                Z-matrix (autoz)
                                -------- 

 Units are Angstrom for bonds and degrees for angles
 
      Type          Name      I     J     K     L     M      Value
      ----------- --------  ----- ----- ----- ----- ----- ----------
    1 Stretch                  1     2                       1.10000
    2 Stretch                  2     3                       1.54001
    3 Stretch                  2     4                       1.09995
    4 Stretch                  2     5                       1.09995
    5 Stretch                  3     6                       1.09996
    6 Stretch                  3     7                       1.09996
    7 Stretch                  3     8                       1.54000
    8 Stretch                  8     9                       1.53998
    9 Stretch                  8    10                       1.09995
   10 Stretch                  8    11                       1.09995
   11 Stretch                  9    12                       1.09996
   12 Stretch                  9    13                       1.09996
   13 Stretch                  9    14                       1.10010
   14 Bend                     1     2     3               109.00086
   15 Bend                     1     2     4               108.99947
   16 Bend                     1     2     5               108.99947
   17 Bend                     2     3     6               108.99928
   18 Bend                     2     3     7               108.99928
   19 Bend                     2     3     8               109.00086
   20 Bend                     3     2     4               109.93738
   21 Bend                     3     2     5               109.93738
   22 Bend                     3     8     9               108.99735
   23 Bend                     3     8    10               108.99947
   24 Bend                     3     8    11               108.99947
   25 Bend                     4     2     5               109.94035
   26 Bend                     6     3     7               109.93853
   27 Bend                     6     3     8               109.93847
   28 Bend                     7     3     8               109.93847
   29 Bend                     8     9    12               109.00104
   30 Bend                     8     9    13               109.00104
   31 Bend                     8     9    14               108.99735
   32 Bend                     9     8    10               109.93910
   33 Bend                     9     8    11               109.93910
   34 Bend                    10     8    11               109.94035
   35 Bend                    12     9    13               109.93853
   36 Bend                    12     9    14               109.93847
   37 Bend                    13     9    14               109.93847
   38 Torsion                  1     2     3     6          59.99971
   39 Torsion                  1     2     3     7         -59.99971
   40 Torsion                  1     2     3     8         180.00000
   41 Torsion                  2     3     8     9         180.00000
   42 Torsion                  2     3     8    10          60.00092
   43 Torsion                  2     3     8    11         -60.00092
   44 Torsion                  3     8     9    12          60.00076
   45 Torsion                  3     8     9    13         -60.00076
   46 Torsion                  3     8     9    14         180.00000
   47 Torsion                  4     2     3     6         179.41771
   48 Torsion                  4     2     3     7          59.41829
   49 Torsion                  4     2     3     8         -60.58200
   50 Torsion                  5     2     3     6         -59.41829
   51 Torsion                  5     2     3     7        -179.41771
   52 Torsion                  5     2     3     8          60.58200
   53 Torsion                  6     3     8     9         -60.58158
   54 Torsion                  6     3     8    10         179.41935
   55 Torsion                  6     3     8    11          59.41750
   56 Torsion                  7     3     8     9          60.58158
   57 Torsion                  7     3     8    10         -59.41750
   58 Torsion                  7     3     8    11        -179.41935
   59 Torsion                 10     8     9    12         179.41765
   60 Torsion                 10     8     9    13          59.41613
   61 Torsion                 10     8     9    14         -60.58311
   62 Torsion                 11     8     9    12         -59.41613
   63 Torsion                 11     8     9    13        -179.41765
   64 Torsion                 11     8     9    14          60.58311
 
 
            XYZ format geometry
            -------------------
    14
 geometry
 H                    -1.45467647    -2.36937647     0.00000000
 C                    -1.45467647    -1.26937647     0.00000000
 C                     0.00142353    -0.76797647     0.00000000
 H                    -1.97467647    -0.91127647     0.90070000
 H                    -1.97467647    -0.91127647    -0.90070000
 H                     0.50932353    -1.14307647    -0.90070000
 H                     0.50932353    -1.14307647     0.90070000
 C                     0.00142353     0.77202353     0.00000000
 C                     1.45752353     1.27332353     0.00000000
 H                    -0.51857647     1.13012353     0.90070000
 H                    -0.51857647     1.13012353    -0.90070000
 H                     1.96542353     0.89822353    -0.90070000
 H                     1.96542353     0.89822353     0.90070000
 H                     1.45752353     2.37342353     0.00000000
 
 ==============================================================================
                                internuclear distances
 ------------------------------------------------------------------------------
       center one      |      center two      | atomic units |  angstroms
 ------------------------------------------------------------------------------
    2 C                |   1 H                |     2.07870  |     1.10000
    3 C                |   2 C                |     2.91020  |     1.54001
    4 H                |   2 C                |     2.07861  |     1.09995
    5 H                |   2 C                |     2.07861  |     1.09995
    6 H                |   3 C                |     2.07863  |     1.09996
    7 H                |   3 C                |     2.07863  |     1.09996
    8 C                |   3 C                |     2.91018  |     1.54000
    9 C                |   8 C                |     2.91013  |     1.53998
   10 H                |   8 C                |     2.07861  |     1.09995
   11 H                |   8 C                |     2.07861  |     1.09995
   12 H                |   9 C                |     2.07863  |     1.09996
   13 H                |   9 C                |     2.07863  |     1.09996
   14 H                |   9 C                |     2.07889  |     1.10010
 ------------------------------------------------------------------------------
                         number of included internuclear distances:         13
 ==============================================================================



 ==============================================================================
                                 internuclear angles
 ------------------------------------------------------------------------------
        center 1       |       center 2       |       center 3       |  degrees
 ------------------------------------------------------------------------------
    1 H                |   2 C                |   3 C                |   109.00
    1 H                |   2 C                |   4 H                |   109.00
    1 H                |   2 C                |   5 H                |   109.00
    3 C                |   2 C                |   4 H                |   109.94
    3 C                |   2 C                |   5 H                |   109.94
    4 H                |   2 C                |   5 H                |   109.94
    2 C                |   3 C                |   6 H                |   109.00
    2 C                |   3 C                |   7 H                |   109.00
    2 C                |   3 C                |   8 C                |   109.00
    6 H                |   3 C                |   7 H                |   109.94
    6 H                |   3 C                |   8 C                |   109.94
    7 H                |   3 C                |   8 C                |   109.94
    3 C                |   8 C                |   9 C                |   109.00
    3 C                |   8 C                |  10 H                |   109.00
    3 C                |   8 C                |  11 H                |   109.00
    9 C                |   8 C                |  10 H                |   109.94
    9 C                |   8 C                |  11 H                |   109.94
   10 H                |   8 C                |  11 H                |   109.94
    8 C                |   9 C                |  12 H                |   109.00
    8 C                |   9 C                |  13 H                |   109.00
    8 C                |   9 C                |  14 H                |   109.00
   12 H                |   9 C                |  13 H                |   109.94
   12 H                |   9 C                |  14 H                |   109.94
   13 H                |   9 C                |  14 H                |   109.94
 ------------------------------------------------------------------------------
                            number of included internuclear angles:         24
 ==============================================================================



  library name resolved from: environment
  library file name is: </home/niri/nwchem/nwchem-6.0/src/basis/libraries/>
  
                      Basis "ao basis" -> "" (cartesian)
                      -----
  C (Carbon)
  ----------
            Exponent  Coefficients 
       -------------- ---------------------------------------------------------
  1 S  3.04752490E+03  0.001835
  1 S  4.57369510E+02  0.014037
  1 S  1.03948690E+02  0.068843
  1 S  2.92101550E+01  0.232184
  1 S  9.28666300E+00  0.467941
  1 S  3.16392700E+00  0.362312
 
  2 S  7.86827240E+00 -0.119332
  2 S  1.88128850E+00 -0.160854
  2 S  5.44249300E-01  1.143456
 
  3 P  7.86827240E+00  0.068999
  3 P  1.88128850E+00  0.316424
  3 P  5.44249300E-01  0.744308
 
  4 S  1.68714400E-01  1.000000
 
  5 P  1.68714400E-01  1.000000
 
  H (Hydrogen)
  ------------
            Exponent  Coefficients 
       -------------- ---------------------------------------------------------
  1 S  1.87311370E+01  0.033495
  1 S  2.82539370E+00  0.234727
  1 S  6.40121700E-01  0.813757
 
  2 S  1.61277800E-01  1.000000
 


 Summary of "ao basis" -> "" (cartesian)
 ------------------------------------------------------------------------------
       Tag                 Description            Shells   Functions and Types
 ---------------- ------------------------------  ------  ---------------------
 C                           6-31G                   5        9   3s2p
 H                           6-31G                   2        2   2s


 
                                 NWChem DFT Module
                                 -----------------
 
 
                                  TDDFT on butane
 
 
  Caching 1-el integrals 
 
            General Information
            -------------------
          SCF calculation type: DFT
          Wavefunction type:  closed shell.
          No. of atoms     :    14
          No. of electrons :    34
           Alpha electrons :    17
            Beta electrons :    17
          Charge           :     0
          Spin multiplicity:     1
          Use of symmetry is: off; symmetry adaption is: off
          Maximum number of iterations:  30
          AO basis - number of functions:    56
                     number of shells:    40
          Convergence on energy requested: 1.00D-06
          Convergence on density requested: 1.00D-05
          Convergence on gradient requested: 5.00D-04
 
              XC Information
              --------------
                    Becke 1988 Exchange Functional  1.000          
              Lee-Yang-Parr Correlation Functional  1.000          
 
             Grid Information
             ----------------
          Grid used for XC integration:  medium    
          Radial quadrature: Mura-Knowles        
          Angular quadrature: Lebedev. 
          Tag              B.-S. Rad. Rad. Pts. Rad. Cut. Ang. Pts.
          ---              ---------- --------- --------- ---------
          H                   0.35       45          12.0       434
          C                   0.70       49          11.0       434
          Grid pruning is: on 
          Number of quadrature shells:   646
          Spatial weights used:  Erf1
 
          Convergence Information
          -----------------------
          Convergence aids based upon iterative change in 
          total energy or number of iterations. 
          Levelshifting, if invoked, occurs when the 
          HOMO/LUMO gap drops below (HL_TOL): 1.00D-02
          DIIS, if invoked, will attempt to extrapolate 
          using up to (NFOCK): 10 stored Fock matrices.

                    Damping( 0%)  Levelshifting(0.5)       DIIS
                  --------------- ------------------- ---------------
          dE  on:    start            ASAP                start   
          dE off:    2 iters         30 iters            30 iters 

 
      Screening Tolerance Information
      -------------------------------
          Density screening/tol_rho: 1.00D-10
          AO Gaussian exp screening on grid/accAOfunc:  14
          CD Gaussian exp screening on grid/accCDfunc:  20
          XC Gaussian exp screening on grid/accXCfunc:  20
          Schwarz screening/accCoul: 1.00D-08

 
      Superposition of Atomic Density Guess
      -------------------------------------
 
 Sum of atomic energies:        -155.62334198
 
      Non-variational initial energy
      ------------------------------

 Total energy =    -158.430483
 1-e energy   =    -465.474993
 2-e energy   =     176.324359
 HOMO         =      -0.363753
 LUMO         =       0.132872
 
   Time after variat. SCF:      0.2
   Time prior to 1st pass:      0.2

 Integral file          = ./butane-excit.aoints.0
 Record size in doubles =  65536        No. of integs per rec  =  43688
 Max. records in memory =     12        Max. records in file   =   3199
 No. of bits per label  =      8        No. of bits per value  =     64


 #quartets = 3.015D+05 #integrals = 1.036D+06 #direct =  0.0% #cached =100.0%


File balance: exchanges=     0  moved=     0  time=   0.0


 Grid_pts file          = ./butane-excit.gridpts.0
 Record size in doubles =  12289        No. of grid_pts per rec  =   3070
 Max. records in memory =     27        Max. recs in file   =     17063

 WARNING: error on integrated density =  0.15D-05
 greater than required accuracy of  0.10D-05

           Memory utilization after 1st SCF pass: 
           Heap Space remaining (MW):       31.65            31646001
          Stack Space remaining (MW):       32.77            32767337

   convergence    iter        energy       DeltaE   RMS-Dens  Diis-err    time
 ---------------- ----- ----------------- --------- --------- ---------  ------
 d= 0,ls=0.0,diis     1   -158.2560292907 -2.89D+02  1.19D-02  3.59D-01     1.6
 WARNING: error on integrated density =  0.13D-05
 greater than required accuracy of  0.10D-05
 d= 0,ls=0.0,diis     2   -158.2975669813 -4.15D-02  2.21D-03  7.75D-03     2.4
 WARNING: error on integrated density =  0.14D-05
 greater than required accuracy of  0.10D-05
 d= 0,ls=0.0,diis     3   -158.2977643799 -1.97D-04  1.23D-03  7.61D-03     3.1
 WARNING: error on integrated density =  0.14D-05
 greater than required accuracy of  0.10D-05
 d= 0,ls=0.0,diis     4   -158.2987367341 -9.72D-04  2.62D-04  2.14D-04     3.8
 WARNING: error on integrated density =  0.13D-05
 greater than required accuracy of  0.10D-05
 d= 0,ls=0.0,diis     5   -158.2987672455 -3.05D-05  2.82D-05  6.96D-07     4.6
 WARNING: error on integrated density =  0.13D-05
 greater than required accuracy of  0.10D-05
 d= 0,ls=0.0,diis     6   -158.2987673712 -1.26D-07  5.15D-06  1.09D-07     5.3


         Total DFT energy =     -158.298767371227
      One electron energy =     -469.982705509773
           Coulomb energy =      206.302026088253
    Exchange-Corr. energy =      -25.338238989686
 Nuclear repulsion energy =      130.720151039979

 Numeric. integr. density =       34.000045887339

     Total iterative time =      5.1s


 
                       DFT Final Molecular Orbital Analysis
                       ------------------------------------
 
 Vector    4  Occ=2.000000D+00  E=-9.898324D+00
              MO Center= -1.5D+00, -1.3D+00,  1.2D-13, r^2= 3.6D-02
   Bfn.  Coefficient  Atom+Function         Bfn.  Coefficient  Atom+Function  
  ----- ------------  ---------------      ----- ------------  ---------------
     3     -0.994947   2 C  s         
 
 Vector    5  Occ=2.000000D+00  E=-7.063339D-01
              MO Center=  8.6D-04,  1.2D-04,  1.3D-10, r^2= 2.2D+00
   Bfn.  Coefficient  Atom+Function         Bfn.  Coefficient  Atom+Function  
  ----- ------------  ---------------      ----- ------------  ---------------
    13      0.240272   3 C  s                30      0.240181   8 C  s         
    34      0.188965   8 C  s                17      0.188832   3 C  s         
    39      0.157843   9 C  s                 4      0.157780   2 C  s         
 
 Vector    6  Occ=2.000000D+00  E=-6.381680D-01
              MO Center=  1.1D-03, -2.6D-03,  7.1D-11, r^2= 4.0D+00
   Bfn.  Coefficient  Atom+Function         Bfn.  Coefficient  Atom+Function  
  ----- ------------  ---------------      ----- ------------  ---------------
    39      0.247715   9 C  s                 4     -0.247567   2 C  s         
    43      0.219210   9 C  s                 8     -0.218566   2 C  s         
 
 Vector    7  Occ=2.000000D+00  E=-5.481127D-01
              MO Center= -7.2D-03, -1.6D-03, -1.5D-10, r^2= 4.5D+00
   Bfn.  Coefficient  Atom+Function         Bfn.  Coefficient  Atom+Function  
  ----- ------------  ---------------      ----- ------------  ---------------
    43     -0.240914   9 C  s                 8     -0.240243   2 C  s         
    39     -0.222739   9 C  s                 4     -0.222280   2 C  s         
    34      0.163313   8 C  s                17      0.161644   3 C  s         
    30      0.151233   8 C  s                13      0.151095   3 C  s         
 
 Vector    8  Occ=2.000000D+00  E=-5.038404D-01
              MO Center= -8.3D-03, -1.2D-02,  7.0D-10, r^2= 3.0D+00
   Bfn.  Coefficient  Atom+Function         Bfn.  Coefficient  Atom+Function  
  ----- ------------  ---------------      ----- ------------  ---------------
    17     -0.237580   3 C  s                34      0.236667   8 C  s         
    13     -0.208986   3 C  s                30      0.208629   8 C  s         
 
 Vector    9  Occ=2.000000D+00  E=-4.127667D-01
              MO Center=  6.6D-04, -7.4D-04,  2.1D-10, r^2= 2.9D+00
   Bfn.  Coefficient  Atom+Function         Bfn.  Coefficient  Atom+Function  
  ----- ------------  ---------------      ----- ------------  ---------------
    16      0.266061   3 C  pz               33      0.265903   8 C  pz        
    42      0.171257   9 C  pz                7      0.170986   2 C  pz        
 
 Vector   10  Occ=2.000000D+00  E=-3.677295D-01
              MO Center=  1.0D-01,  1.2D-01, -5.3D-10, r^2= 4.3D+00
   Bfn.  Coefficient  Atom+Function         Bfn.  Coefficient  Atom+Function  
  ----- ------------  ---------------      ----- ------------  ---------------
    41     -0.250126   9 C  py               15      0.226501   3 C  py        
    32     -0.226194   8 C  py                6      0.213781   2 C  py        
    55     -0.150040  14 H  s         
 
 Vector   11  Occ=2.000000D+00  E=-3.557203D-01
              MO Center=  2.7D-03, -1.6D-03, -1.4D-09, r^2= 4.5D+00
   Bfn.  Coefficient  Atom+Function         Bfn.  Coefficient  Atom+Function  
  ----- ------------  ---------------      ----- ------------  ---------------
    42     -0.283527   9 C  pz                7      0.282798   2 C  pz        
    16      0.160489   3 C  pz               33     -0.160012   8 C  pz        
 
 Vector   12  Occ=2.000000D+00  E=-3.544468D-01
              MO Center= -6.6D-02, -8.5D-02,  6.5D-10, r^2= 4.8D+00
   Bfn.  Coefficient  Atom+Function         Bfn.  Coefficient  Atom+Function  
  ----- ------------  ---------------      ----- ------------  ---------------
     6     -0.278580   2 C  py               41     -0.251065   9 C  py        
    14      0.208056   3 C  px               31      0.202903   8 C  px        
     1      0.184744   1 H  s                55     -0.169975  14 H  s         
 
 Vector   13  Occ=2.000000D+00  E=-3.115584D-01
              MO Center= -9.9D-03, -8.5D-03,  6.0D-10, r^2= 4.6D+00
   Bfn.  Coefficient  Atom+Function         Bfn.  Coefficient  Atom+Function  
  ----- ------------  ---------------      ----- ------------  ---------------
     5      0.248553   2 C  px               40      0.246038   9 C  px        
    31     -0.210338   8 C  px               14     -0.208955   3 C  px        
     6     -0.167769   2 C  py               41     -0.166759   9 C  py        
 
 Vector   14  Occ=2.000000D+00  E=-2.985336D-01
              MO Center= -6.1D-03, -2.0D-03,  6.5D-10, r^2= 4.5D+00
   Bfn.  Coefficient  Atom+Function         Bfn.  Coefficient  Atom+Function  
  ----- ------------  ---------------      ----- ------------  ---------------
     7      0.270785   2 C  pz               42      0.270481   9 C  pz        
    33     -0.184146   8 C  pz               16     -0.183292   3 C  pz        
    23     -0.159878   5 H  s                21      0.159878   4 H  s         
    51     -0.159355  12 H  s                53      0.159355  13 H  s         
 
 Vector   15  Occ=2.000000D+00  E=-2.794987D-01
              MO Center= -6.4D-03, -9.3D-03, -1.1D-10, r^2= 3.1D+00
   Bfn.  Coefficient  Atom+Function         Bfn.  Coefficient  Atom+Function  
  ----- ------------  ---------------      ----- ------------  ---------------
    14     -0.255033   3 C  px               31      0.254855   8 C  px        
     5      0.229265   2 C  px               40     -0.227035   9 C  px        
    15      0.169463   3 C  py               32     -0.167670   8 C  py        
 
 Vector   16  Occ=2.000000D+00  E=-2.780222D-01
              MO Center= -4.4D-03, -5.1D-03, -7.9D-10, r^2= 3.2D+00
   Bfn.  Coefficient  Atom+Function         Bfn.  Coefficient  Atom+Function  
  ----- ------------  ---------------      ----- ------------  ---------------
    16      0.272179   3 C  pz               33     -0.272161   8 C  pz        
    26     -0.199958   6 H  s                28      0.199958   7 H  s         
    48     -0.199728  10 H  s                50      0.199728  11 H  s         
    25     -0.180385   6 H  s                27      0.180385   7 H  s         
    47     -0.180117  10 H  s                49      0.180117  11 H  s         
 
 Vector   17  Occ=2.000000D+00  E=-2.581806D-01
              MO Center= -2.9D-03, -1.6D-03, -6.8D-11, r^2= 3.7D+00
   Bfn.  Coefficient  Atom+Function         Bfn.  Coefficient  Atom+Function  
  ----- ------------  ---------------      ----- ------------  ---------------
    32     -0.308549   8 C  py               15      0.306868   3 C  py        
     6     -0.220884   2 C  py               41      0.216901   9 C  py        
     2      0.182098   1 H  s                56      0.180022  14 H  s         
    40      0.174577   9 C  px                5     -0.170637   2 C  px        
     1      0.156408   1 H  s                55      0.154568  14 H  s         
 
 Vector   18  Occ=0.000000D+00  E= 6.879365D-02
              MO Center= -1.6D-03, -1.3D-02, -4.8D-09, r^2= 6.0D+00
   Bfn.  Coefficient  Atom+Function         Bfn.  Coefficient  Atom+Function  
  ----- ------------  ---------------      ----- ------------  ---------------
    17     -1.049389   3 C  s                34     -1.043869   8 C  s         
    43     -0.858936   9 C  s                 8     -0.857950   2 C  s         
    28      0.664994   7 H  s                26      0.664994   6 H  s         
    50      0.659981  11 H  s                48      0.659981  10 H  s         
    52      0.504156  12 H  s                54      0.504156  13 H  s         
 
 Vector   19  Occ=0.000000D+00  E= 9.624338D-02
              MO Center=  1.5D-02,  9.4D-03, -6.1D-09, r^2= 8.1D+00
   Bfn.  Coefficient  Atom+Function         Bfn.  Coefficient  Atom+Function  
  ----- ------------  ---------------      ----- ------------  ---------------
    43     -1.720869   9 C  s                 8      1.715657   2 C  s         
    56      0.751452  14 H  s                 2     -0.741758   1 H  s         
    52      0.730152  12 H  s                54      0.730152  13 H  s         
    24     -0.725488   5 H  s                22     -0.725488   4 H  s         
    36      0.393872   8 C  py               19      0.390870   3 C  py        
 
 Vector   20  Occ=0.000000D+00  E= 1.071779D-01
              MO Center=  2.2D-03, -5.0D-03,  1.2D-08, r^2= 5.5D+00
   Bfn.  Coefficient  Atom+Function         Bfn.  Coefficient  Atom+Function  
  ----- ------------  ---------------      ----- ------------  ---------------
    28      0.752370   7 H  s                26     -0.752370   6 H  s         
    48      0.750650  10 H  s                50     -0.750650  11 H  s         
    54      0.609933  13 H  s                52     -0.609933  12 H  s         
    24     -0.605239   5 H  s                22      0.605238   4 H  s         
    20     -0.515451   3 C  pz               37     -0.512374   8 C  pz        
 
 Vector   21  Occ=0.000000D+00  E= 1.196817D-01
              MO Center= -1.4D-02, -8.9D-03, -8.3D-09, r^2= 6.1D+00
   Bfn.  Coefficient  Atom+Function         Bfn.  Coefficient  Atom+Function  
  ----- ------------  ---------------      ----- ------------  ---------------
    34      1.179611   8 C  s                17     -1.178700   3 C  s         
    50     -0.796989  11 H  s                48     -0.796989  10 H  s         
    26      0.794348   6 H  s                28      0.794348   7 H  s         
    56     -0.567613  14 H  s                 2      0.564169   1 H  s         
    22     -0.446201   4 H  s                24     -0.446201   5 H  s         
 
 Vector   22  Occ=0.000000D+00  E= 1.444270D-01
              MO Center= -2.7D-02, -3.9D-02, -2.2D-08, r^2= 8.1D+00
   Bfn.  Coefficient  Atom+Function         Bfn.  Coefficient  Atom+Function  
  ----- ------------  ---------------      ----- ------------  ---------------
     2      1.241840   1 H  s                56      1.211277  14 H  s         
    10      0.986915   2 C  py               45     -0.977928   9 C  py        
    35     -0.503342   8 C  px               18      0.502825   3 C  px        
    52     -0.467486  12 H  s                54     -0.467486  13 H  s         
    24     -0.463812   5 H  s                22     -0.463812   4 H  s         
 
 Vector   23  Occ=0.000000D+00  E= 1.614171D-01
              MO Center= -1.6D-01,  7.0D-01,  5.9D-08, r^2= 7.1D+00
   Bfn.  Coefficient  Atom+Function         Bfn.  Coefficient  Atom+Function  
  ----- ------------  ---------------      ----- ------------  ---------------
    34     -1.760892   8 C  s                43      1.632691   9 C  s         
     8      1.397513   2 C  s                56     -1.021838  14 H  s         
    48      0.853109  10 H  s                50      0.853109  11 H  s         
    22     -0.778033   4 H  s                24     -0.778033   5 H  s         
    17     -0.576366   3 C  s                52     -0.412890  12 H  s         
 
 Vector   24  Occ=0.000000D+00  E= 1.619357D-01
              MO Center=  3.2D-02,  2.0D-02, -5.8D-08, r^2= 7.3D+00
   Bfn.  Coefficient  Atom+Function         Bfn.  Coefficient  Atom+Function  
  ----- ------------  ---------------      ----- ------------  ---------------
    52      1.080623  12 H  s                54     -1.080623  13 H  s         
    24     -1.056074   5 H  s                22      1.056073   4 H  s         
    46      1.033730   9 C  pz               11     -1.005358   2 C  pz        
    37     -0.493552   8 C  pz               20      0.469750   3 C  pz        
    42      0.311826   9 C  pz                7     -0.307448   2 C  pz        
 
 Vector   25  Occ=0.000000D+00  E= 1.620923D-01
              MO Center=  1.7D-01, -6.6D-01,  5.3D-08, r^2= 7.0D+00
   Bfn.  Coefficient  Atom+Function         Bfn.  Coefficient  Atom+Function  
  ----- ------------  ---------------      ----- ------------  ---------------
    17      1.864101   3 C  s                 2      1.196087   1 H  s         
     8     -1.013169   2 C  s                26     -0.838718   6 H  s         
    28     -0.838718   7 H  s                34     -0.749497   8 C  s         
    56     -0.702447  14 H  s                54      0.665918  13 H  s         
    52      0.665918  12 H  s                45      0.607969   9 C  py        
 
 Vector   26  Occ=0.000000D+00  E= 1.769600D-01
              MO Center=  3.3D-01, -3.9D-01,  4.7D-08, r^2= 5.8D+00
   Bfn.  Coefficient  Atom+Function         Bfn.  Coefficient  Atom+Function  
  ----- ------------  ---------------      ----- ------------  ---------------
    28     -1.095522   7 H  s                26      1.095522   6 H  s         
    20      1.094595   3 C  pz               11     -0.917187   2 C  pz        
    54      0.897773  13 H  s                52     -0.897773  12 H  s         
    46     -0.840390   9 C  pz               22      0.803505   4 H  s         
    24     -0.803505   5 H  s                50      0.294176  11 H  s         
 
 Vector   27  Occ=0.000000D+00  E= 1.776195D-01
              MO Center= -3.8D-01,  3.5D-01, -7.9D-08, r^2= 4.6D+00
   Bfn.  Coefficient  Atom+Function         Bfn.  Coefficient  Atom+Function  
  ----- ------------  ---------------      ----- ------------  ---------------
    37     -1.414652   8 C  pz               50     -1.345765  11 H  s         
    48      1.345765  10 H  s                20      0.934973   3 C  pz        
    26      0.842562   6 H  s                28     -0.842562   7 H  s         
    24      0.494436   5 H  s                22     -0.494436   4 H  s         
    46      0.375148   9 C  pz               33     -0.368778   8 C  pz        
 
 Vector   28  Occ=0.000000D+00  E= 2.179483D-01
              MO Center=  1.7D-01,  1.8D-01,  5.7D-10, r^2= 5.0D+00
   Bfn.  Coefficient  Atom+Function         Bfn.  Coefficient  Atom+Function  
  ----- ------------  ---------------      ----- ------------  ---------------
    34     -1.275968   8 C  s                44     -1.249078   9 C  px        
    17      1.108875   3 C  s                35     -1.008380   8 C  px        
     9     -0.978605   2 C  px               43      0.848076   9 C  s         
    18     -0.678975   3 C  px                8     -0.596452   2 C  s         
    10     -0.530604   2 C  py               45     -0.529221   9 C  py        
 
 Vector   29  Occ=0.000000D+00  E= 2.201909D-01
              MO Center= -1.6D-01, -1.7D-01,  3.1D-09, r^2= 5.2D+00
   Bfn.  Coefficient  Atom+Function         Bfn.  Coefficient  Atom+Function  
  ----- ------------  ---------------      ----- ------------  ---------------
    18     -1.466367   3 C  px               35      1.291077   8 C  px        
     9     -1.267865   2 C  px                8     -1.028147   2 C  s         
    44      0.983413   9 C  px               43     -0.908075   9 C  s         
    17      0.804313   3 C  s                34      0.536781   8 C  s         
    56      0.447699  14 H  s                48      0.423523  10 H  s         
 
 Vector   30  Occ=0.000000D+00  E= 2.223242D-01
              MO Center=  1.5D-02,  9.9D-03,  2.6D-09, r^2= 3.6D+00
   Bfn.  Coefficient  Atom+Function         Bfn.  Coefficient  Atom+Function  
  ----- ------------  ---------------      ----- ------------  ---------------
    19      1.755581   3 C  py               36      1.746478   8 C  py        
    34     -1.740583   8 C  s                17      1.706230   3 C  s         
    43      0.616764   9 C  s                45     -0.593568   9 C  py        
     8     -0.591053   2 C  s                10     -0.581354   2 C  py        
    54     -0.400897  13 H  s                52     -0.400897  12 H  s         
 
 Vector   31  Occ=0.000000D+00  E= 4.916085D-01
              MO Center= -3.9D-03,  5.5D-03, -5.9D-10, r^2= 4.9D+00
   Bfn.  Coefficient  Atom+Function         Bfn.  Coefficient  Atom+Function  
  ----- ------------  ---------------      ----- ------------  ---------------
    35     -0.870717   8 C  px               18      0.849142   3 C  px        
    44      0.658437   9 C  px                9     -0.655108   2 C  px        
    10      0.512730   2 C  py               43      0.503996   9 C  s         
    45     -0.499169   9 C  py                8      0.495271   2 C  s         
    31      0.487132   8 C  px               14     -0.482788   3 C  px        
 
 Vector   32  Occ=0.000000D+00  E= 5.047260D-01
              MO Center=  1.2D-02, -5.4D-03,  1.3D-10, r^2= 5.6D+00
   Bfn.  Coefficient  Atom+Function         Bfn.  Coefficient  Atom+Function  
  ----- ------------  ---------------      ----- ------------  ---------------
    17     -0.878429   3 C  s                34      0.864030   8 C  s         
     9      0.729764   2 C  px               44      0.696388   9 C  px        
    45      0.665349   9 C  py               10      0.640716   2 C  py        
     5     -0.443175   2 C  px               40     -0.440929   9 C  px        
    41     -0.387460   9 C  py                6     -0.376891   2 C  py        
 

 center of mass
 --------------
 x =   0.00110294 y =   0.00154844 z =   0.00000000

 moments of inertia (a.u.)
 ------------------
         283.563145980754        -200.765189225457           0.000000000000
        -200.765189225457         280.010454031230           0.000000000000
           0.000000000000           0.000000000000         516.857873540283
 
     Multipole analysis of the density
     ---------------------------------
 
     L   x y z        total         alpha         beta         nuclear
     -   - - -        -----         -----         ----         -------
     0   0 0 0      0.000000    -17.000000    -17.000000     34.000000
 
     1   1 0 0     -0.001960     -0.000980     -0.000980      0.000000
     1   0 1 0     -0.004149     -0.002075     -0.002075      0.000000
     1   0 0 1      0.000000      0.000000      0.000000      0.000000
 
     2   2 0 0    -21.832248    -93.522646    -93.522646    165.213045
     2   1 1 0     -0.430317    -60.769423    -60.769423    121.108530
     2   1 0 1      0.000000      0.000000      0.000000      0.000000
     2   0 2 0    -21.355242    -93.169236    -93.169236    164.983230
     2   0 1 1      0.000000      0.000000      0.000000      0.000000
     2   0 0 2    -20.579150    -21.877828    -21.877828     23.176507
 

 Parallel integral file used      25 records with       0 large values

                                NWChem TDDFT Module
                                -------------------
 
 
                                  TDDFT on butane
 
 
            General Information
            -------------------
           No. of orbitals :   112
            Alpha orbitals :    56
             Beta orbitals :    56
        Alpha frozen cores :     0
         Beta frozen cores :     0
     Alpha frozen virtuals :     0
      Beta frozen virtuals :     0
         Spin multiplicity :     1
    Number of AO functions :    56
        Use of symmetry is : off
      Symmetry adaption is : off
         Schwarz screening : 0.10D-07
 
              XC Information
              --------------
             Becke 1988 Exchange Functional   1.00          
       Lee-Yang-Parr Correlation Functional   1.00          
 
             TDDFT Information
             -----------------
          Calculation type : TDDFT             
         Wavefunction type : Restricted singlets
          No. of electrons :    34
           Alpha electrons :    17
            Beta electrons :    17
              No. of roots :    10
          Max subspacesize :   663
            Max iterations :   100
               Target root :     1
           Target symmetry : none
      Symmetry restriction : off
                 Algorithm : Optimal
        Davidson threshold : 0.10D-03
 
            Memory Information
            ------------------
          Available GA space size is         262140864 doubles
          Available MA space size is          65532441 doubles
          Length of a trial vector is          663
          Algorithm : Incore multiple tensor contraction
          Estimated peak GA usage is           2034960 doubles
          Estimated peak MA usage is             71000 doubles

  Entering Davidson iterations
  Restricted singlet excited states

  Iter   NTrls   NConv    DeltaV     DeltaE      Time   
  ----  ------  ------  ---------  ---------  --------- 
    1     10       0     0.15E+00   0.10+100        6.8
    2     20       0     0.64E-01   0.64E-02        6.9
    3     40       0     0.18E-01   0.25E-02       12.9
    4     60       0     0.82E-02   0.14E-03       12.9
    5     80       0     0.49E-02   0.22E-04       13.0
    6    100       0     0.31E-02   0.58E-05       13.3
    7    120       0     0.20E-02   0.20E-05       13.3
    8    140       1     0.11E-02   0.41E-06       13.3
    9    158       4     0.38E-03   0.17E-06       12.2
   10    170       8     0.12E-03   0.27E-07        8.7
   11    174      10     0.54E-04   0.40E-08        4.0
  ----  ------  ------  ---------  ---------  --------- 
  Convergence criterion met
 
  Ground state a     -158.298767371 a.u.
 
  -------------------------------------------------------
  Root  1 singlet a     0.330989099 a.u. (  9.0066755 eV)
  -------------------------------------------------------
     Transition Moments    X  0.00287   Y  0.00587   Z  0.00000
     Transition Moments   XX  0.51985  XY -0.43390  XZ  0.00000
     Transition Moments   YY -1.58199  YZ  0.00000  ZZ  0.25148
     Transition Moments  XXX  0.03726 XXY  0.08769 XXZ  0.00000
     Transition Moments  XYY  0.11632 XYZ  0.00000 XZZ -0.02381
     Transition Moments  YYY  0.20929 YYZ  0.00000 YZZ  0.00890
     Transition Moments  ZZZ  0.00000
     Dipole Oscillator Strength                          0.00001
 
     Occ. 17  a   ---  Virt. 18  a    0.99687 X
     Occ. 17  a   ---  Virt. 22  a   -0.05408 X
  -------------------------------------------------------
  Root  2 singlet a     0.351368227 a.u. (  9.5612200 eV)
  -------------------------------------------------------
     Transition Moments    X  0.00000   Y  0.00000   Z -0.00145
     Transition Moments   XX  0.00000  XY  0.00000  XZ -1.97755
     Transition Moments   YY  0.00000  YZ  1.18804  ZZ  0.00000
     Transition Moments  XXX  0.00000 XXY  0.00000 XXZ  0.05154
     Transition Moments  XYY  0.00000 XYZ  0.03295 XZZ  0.00000
     Transition Moments  YYY  0.00000 YYZ -0.05142 YZZ  0.00000
     Transition Moments  ZZZ -0.01339
     Dipole Oscillator Strength                          0.00000
 
     Occ. 14  a   ---  Virt. 19  a   -0.05571 X
     Occ. 16  a   ---  Virt. 18  a    0.99606 X
  -------------------------------------------------------
  Root  3 singlet a     0.355770476 a.u. (  9.6810114 eV)
  -------------------------------------------------------
     Transition Moments    X  0.00338   Y  0.00470   Z  0.00000
     Transition Moments   XX  0.07745  XY  1.31717  XZ  0.00000
     Transition Moments   YY  0.94328  YZ  0.00000  ZZ -1.58280
     Transition Moments  XXX  0.11705 XXY  0.06892 XXZ  0.00000
     Transition Moments  XYY  0.03943 XYZ  0.00000 XZZ  0.01613
     Transition Moments  YYY  0.13905 YYZ  0.00000 YZZ  0.03923
     Transition Moments  ZZZ  0.00000
     Dipole Oscillator Strength                          0.00001
 
     Occ. 13  a   ---  Virt. 19  a   -0.06609 X
     Occ. 15  a   ---  Virt. 18  a   -0.99144 X
  -------------------------------------------------------
  Root  4 singlet a     0.360234244 a.u. (  9.8024767 eV)
  -------------------------------------------------------
     Transition Moments    X -0.19235   Y -0.35166   Z  0.00000
     Transition Moments   XX -0.00236  XY  0.01962  XZ  0.00000
     Transition Moments   YY  0.01878  YZ  0.00000  ZZ -0.02249
     Transition Moments  XXX -1.23482 XXY -5.29315 XXZ  0.00000
     Transition Moments  XYY-10.63743 XYZ  0.00000 XZZ  0.21234
     Transition Moments  YYY-19.70378 YYZ  0.00000 YZZ -0.41853
     Transition Moments  ZZZ  0.00000
     Dipole Oscillator Strength                          0.03858
 
     Occ. 15  a   ---  Virt. 19  a    0.06135 X
     Occ. 17  a   ---  Virt. 19  a    0.99083 X
     Occ. 17  a   ---  Virt. 21  a    0.07792 X
  -------------------------------------------------------
  Root  5 singlet a     0.367262039 a.u. (  9.9937128 eV)
  -------------------------------------------------------
     Transition Moments    X  0.00000   Y  0.00000   Z  0.05388
     Transition Moments   XX  0.00000  XY  0.00000  XZ -0.00947
     Transition Moments   YY  0.00000  YZ  0.00431  ZZ  0.00000
     Transition Moments  XXX  0.00000 XXY  0.00000 XXZ  0.38207
     Transition Moments  XYY  0.00000 XYZ  0.13557 XZZ  0.00000
     Transition Moments  YYY  0.00000 YYZ  1.01255 YZZ  0.00000
     Transition Moments  ZZZ  0.39011
     Dipole Oscillator Strength                          0.00071
 
     Occ. 14  a   ---  Virt. 18  a   -0.24516 X
     Occ. 16  a   ---  Virt. 19  a    0.14887 X
     Occ. 17  a   ---  Virt. 20  a    0.95728 X
  -------------------------------------------------------
  Root  6 singlet a     0.369429339 a.u. ( 10.0526881 eV)
  -------------------------------------------------------
     Transition Moments    X  0.00000   Y  0.00000   Z  0.06109
     Transition Moments   XX  0.00000  XY  0.00000  XZ -0.00089
     Transition Moments   YY  0.00000  YZ -0.00688  ZZ  0.00000
     Transition Moments  XXX  0.00000 XXY  0.00000 XXZ  4.41813
     Transition Moments  XYY  0.00000 XYZ  2.99336 XZZ  0.00000
     Transition Moments  YYY  0.00000 YYZ  0.41363 YZZ  0.00000
     Transition Moments  ZZZ  0.64808
     Dipole Oscillator Strength                          0.00092
 
     Occ. 14  a   ---  Virt. 18  a   -0.94848 X
     Occ. 16  a   ---  Virt. 19  a    0.15955 X
     Occ. 17  a   ---  Virt. 20  a   -0.26724 X
  -------------------------------------------------------
  Root  7 singlet a     0.377387438 a.u. ( 10.2692390 eV)
  -------------------------------------------------------
     Transition Moments    X  0.00000   Y  0.00000   Z  0.22466
     Transition Moments   XX  0.00000  XY  0.00000  XZ -0.00813
     Transition Moments   YY  0.00000  YZ -0.00281  ZZ  0.00000
     Transition Moments  XXX  0.00000 XXY  0.00000 XXZ  8.28471
     Transition Moments  XYY  0.00000 XYZ  2.95187 XZZ  0.00000
     Transition Moments  YYY  0.00000 YYZ -1.21397 YZZ  0.00000
     Transition Moments  ZZZ  2.75815
     Dipole Oscillator Strength                          0.01270
 
     Occ. 14  a   ---  Virt. 18  a   -0.18971 X
     Occ. 15  a   ---  Virt. 20  a   -0.05006 X
     Occ. 16  a   ---  Virt. 19  a   -0.97243 X
     Occ. 17  a   ---  Virt. 20  a    0.10040 X
  -------------------------------------------------------
  Root  8 singlet a     0.379577824 a.u. ( 10.3288425 eV)
  -------------------------------------------------------
     Transition Moments    X -0.31004   Y -0.13684   Z  0.00000
     Transition Moments   XX  0.02407  XY  0.02601  XZ  0.00000
     Transition Moments   YY  0.00354  YZ  0.00000  ZZ -0.00024
     Transition Moments  XXX-10.42541 XXY -0.42580 XXZ  0.00000
     Transition Moments  XYY  3.87214 XYZ  0.00000 XZZ -3.02370
     Transition Moments  YYY  3.15374 YYZ  0.00000 YZZ -2.31190
     Transition Moments  ZZZ  0.00000
     Dipole Oscillator Strength                          0.02906
 
     Occ. 13  a   ---  Virt. 18  a   -0.18555 X
     Occ. 15  a   ---  Virt. 19  a   -0.86130 X
     Occ. 16  a   ---  Virt. 20  a   -0.05433 X
     Occ. 17  a   ---  Virt. 21  a    0.46399 X
  -------------------------------------------------------
  Root  9 singlet a     0.383988080 a.u. ( 10.4488518 eV)
  -------------------------------------------------------
     Transition Moments    X -0.42034   Y -0.53625   Z  0.00000
     Transition Moments   XX  0.00572  XY  0.00112  XZ  0.00000
     Transition Moments   YY -0.00182  YZ  0.00000  ZZ  0.00753
     Transition Moments  XXX -6.96720 XXY -5.01059 XXZ  0.00000
     Transition Moments  XYY -8.24219 XYZ  0.00000 XZZ -1.40289
     Transition Moments  YYY-16.02716 YYZ  0.00000 YZZ -0.99731
     Transition Moments  ZZZ  0.00000
     Dipole Oscillator Strength                          0.11884
 
     Occ. 13  a   ---  Virt. 18  a   -0.16260 X
     Occ. 15  a   ---  Virt. 19  a   -0.41591 X
     Occ. 16  a   ---  Virt. 20  a   -0.17119 X
     Occ. 17  a   ---  Virt. 19  a    0.08234 X
     Occ. 17  a   ---  Virt. 21  a   -0.86474 X
     Occ. 17  a   ---  Virt. 25  a    0.05564 X
  -------------------------------------------------------
  Root 10 singlet a     0.386669418 a.u. ( 10.5218147 eV)
  -------------------------------------------------------
     Transition Moments    X  0.04540   Y  0.19634   Z  0.00000
     Transition Moments   XX  0.02388  XY  0.01192  XZ  0.00000
     Transition Moments   YY -0.01217  YZ  0.00000  ZZ -0.00261
     Transition Moments  XXX -2.61081 XXY  1.49715 XXZ  0.00000
     Transition Moments  XYY  4.32739 XYZ  0.00000 XZZ -2.01247
     Transition Moments  YYY  7.85418 YYZ  0.00000 YZZ -1.87908
     Transition Moments  ZZZ  0.00000
     Dipole Oscillator Strength                          0.01047
 
     Occ. 12  a   ---  Virt. 18  a    0.05002 X
     Occ. 13  a   ---  Virt. 18  a    0.95237 X
     Occ. 15  a   ---  Virt. 19  a   -0.22591 X
     Occ. 15  a   ---  Virt. 21  a   -0.05740 X
     Occ. 16  a   ---  Virt. 20  a   -0.11423 X
     Occ. 17  a   ---  Virt. 25  a   -0.07380 X
 
              Target root =      1
          Target symmetry = none
      Ground state energy =   -158.298767371227
        Excitation energy =      0.330989098881
     Excited state energy =   -157.967778272346
 

 Task  times  cpu:      123.0s     wall:      148.7s
 
 
                                NWChem Input Module
                                -------------------
 
 
 Summary of allocated global arrays
-----------------------------------
  No active global arrays



                         GA Statistics for process    0
                         ------------------------------

       create   destroy   get      put      acc     scatter   gather  read&inc
calls: 7.79e+04 7.79e+04 1.05e+06 1.80e+05 1.06e+06  696        0        0     
number of processes/call 1.03e+00 1.17e+00 1.15e+00 2.00e+00 0.00e+00
bytes total:             2.23e+08 1.14e+08 1.64e+08 2.18e+06 0.00e+00 0.00e+00
bytes remote:            1.59e+08 6.91e+06 1.25e+08 -2.18e+06 0.00e+00 0.00e+00
Max memory consumed for GA by this process: 3583664 bytes
 
MA_summarize_allocated_blocks: starting scan ...
MA_summarize_allocated_blocks: scan completed: 0 heap blocks, 0 stack blocks
MA usage statistics:

	allocation statistics:
					      heap	     stack
					      ----	     -----
	current number of blocks	         0	         0
	maximum number of blocks	        23	        48
	current total bytes		         0	         0
	maximum total bytes		   8976000	  22514152
	maximum total K-bytes		      8976	     22515
	maximum total M-bytes		         9	        23
 
 
                                     CITATION
                                     --------
                Please cite the following reference when publishing
                           results obtained with NWChem:
 
                 M. Valiev, E.J. Bylaska, N. Govind, K. Kowalski,
              T.P. Straatsma, H.J.J. van Dam, D. Wang, J. Nieplocha,
                        E. Apra, T.L. Windus, W.A. de Jong
                 "NWChem: a comprehensive and scalable open-source
                  solution for large scale molecular simulations"
                      Comput. Phys. Commun. 181, 1477 (2010)
                           doi:10.1016/j.cpc.2010.04.018
 
                              AUTHORS & CONTRIBUTORS
                              ----------------------
      E. J. Bylaska, W. A. de Jong, N. Govind, K. Kowalski, T. P. Straatsma,
     M. Valiev, H. J. J. van Dam, D. Wang, E. Apra, T. L. Windus, J. Hammond,
     J. Autschbach, P. Nichols, S. Hirata, M. T. Hackler, Y. Zhao, P.-D. Fan,
      R. J. Harrison, M. Dupuis, D. M. A. Smith, K. Glaesemann, J. Nieplocha,
      V. Tipparaju, M. Krishnan, A. Vazquez-Mayagoitia, L. Jensen, M. Swart,
      Q. Wu, T. Van Voorhis, A. A. Auer, M. Nooijen, L. D. Crosby, E. Brown,
             G. Cisneros, G. I. Fann, H. Fruchtl, J. Garza, K. Hirao,
        R. Kendall, J. A. Nichols, K. Tsemekhman, K. Wolinski, J. Anchell,
       D. Bernholdt, P. Borowski, T. Clark, D. Clerc, H. Dachsel, M. Deegan,
        K. Dyall, D. Elwood, E. Glendening, M. Gutowski, A. Hess, J. Jaffe,
        B. Johnson, J. Ju, R. Kobayashi, R. Kutteh, Z. Lin, R. Littlefield,
    X. Long, B. Meng, T. Nakajima, S. Niu, L. Pollack, M. Rosing, G. Sandrone,
       M. Stave, H. Taylor, G. Thomas, J. H. van Lenthe, A. Wong, Z. Zhang.

 Total times  cpu:      123.0s     wall:      148.8s
