 argument  1 = files.nw
 


============================== echo of input deck ==============================
echo
title "using and scratch and permanent directories"

start c6h6-b3lyp

scratch_dir ./scratch
permanent_dir ./permanent

geometry
 C    0.99261000     0.99261000     0.00000000
 C   -1.35593048     0.36332048     0.00000000
 C    0.36332048    -1.35593048     0.00000000
 C   -0.99261000    -0.99261000     0.00000000
 C    1.35593048    -0.36332048     0.00000000
 C   -0.36332048     1.35593048     0.00000000
 H    1.75792000     1.75792000     0.00000000
 H   -2.40136338     0.64344338     0.00000000
 H    0.64344338    -2.40136338     0.00000000
 H   -1.75792000    -1.75792000     0.00000000
 H    2.40136338    -0.64344338     0.00000000
 H   -0.64344338     2.40136338     0.00000000
end

basis
* library 3-21G
end

dft
  xc b3lyp
end

task dft energy
task dft optimize
================================================================================


                                         
                                         
 
 
              Northwest Computational Chemistry Package (NWChem) 6.0
              ------------------------------------------------------
 
 
                    Environmental Molecular Sciences Laboratory
                       Pacific Northwest National Laboratory
                                Richland, WA 99352
 
                              Copyright (c) 1994-2010
                       Pacific Northwest National Laboratory
                            Battelle Memorial Institute
 
             NWChem is an open-source computational chemistry package
                        distributed under the terms of the
                      Educational Community License (ECL) 2.0
             A copy of the license is included with this distribution
                              in the LICENSE.TXT file
 
                                  ACKNOWLEDGMENT
                                  --------------

            This software and its documentation were developed at the
            EMSL at Pacific Northwest National Laboratory, a multiprogram
            national laboratory, operated for the U.S. Department of Energy
            by Battelle under Contract Number DE-AC05-76RL01830. Support
            for this work was provided by the Department of Energy Office
            of Biological and Environmental Research, Office of Basic
            Energy Sciences, and the Office of Advanced Scientific Computing.


           Job information
           ---------------

    hostname      = curie
    program       = ../../../bin/LINUX64/nwchem
    date          = Mon Nov 15 17:03:39 2010

    compiled      = Mon_Nov_15_10:21:04_2010
    source        = /home/niri/nwchem/nwchem-6.0
    nwchem branch = 6.0
    input         = files.nw
    prefix        = c6h6-b3lyp.
    data base     = ./permanent/c6h6-b3lyp.db
    status        = startup
    nproc         =        4
    time left     =     -1s



           Memory information
           ------------------

    heap     =   13107201 doubles =    100.0 Mbytes
    stack    =   13107201 doubles =    100.0 Mbytes
    global   =   26214400 doubles =    200.0 Mbytes (distinct from heap & stack)
    total    =   52428802 doubles =    400.0 Mbytes
    verify   = yes
    hardfail = no 


           Directory information
           ---------------------
 
  0 permanent = ./permanent
  0 scratch   = ./scratch
 
 
 
 
                                NWChem Input Module
                                -------------------
 
 
                    using and scratch and permanent directories
                    -------------------------------------------

 Scaling coordinates for geometry "geometry" by  1.889725989
 (inverse scale =  0.529177249)

 D6H symmetry detected

          ------
          auto-z
          ------
 
 
                             Geometry "geometry" -> ""
                             -------------------------
 
 Output coordinates in angstroms (scale by  1.889725989 to convert to a.u.)
 
  No.       Tag          Charge          X              Y              Z
 ---- ---------------- ---------- -------------- -------------- --------------
    1 C                    6.0000     0.99261000     0.99261000     0.00000000
    2 C                    6.0000    -1.35593048     0.36332048     0.00000000
    3 C                    6.0000     0.36332048    -1.35593048     0.00000000
    4 C                    6.0000    -0.99261000    -0.99261000     0.00000000
    5 C                    6.0000     1.35593048    -0.36332048     0.00000000
    6 C                    6.0000    -0.36332048     1.35593048     0.00000000
    7 H                    1.0000     1.75792000     1.75792000     0.00000000
    8 H                    1.0000    -2.40136338     0.64344338     0.00000000
    9 H                    1.0000     0.64344338    -2.40136338     0.00000000
   10 H                    1.0000    -1.75792000    -1.75792000     0.00000000
   11 H                    1.0000     2.40136338    -0.64344338     0.00000000
   12 H                    1.0000    -0.64344338     2.40136338     0.00000000
 
      Atomic Mass 
      ----------- 
 
      C                 12.000000
      H                  1.007825
 

 Effective nuclear repulsion energy (a.u.)     202.4405395545

            Nuclear Dipole moment (a.u.) 
            ----------------------------
        X                 Y               Z
 ---------------- ---------------- ----------------
     0.0000000000     0.0000000000     0.0000000000
 
      Symmetry information
      --------------------
 
 Group name             D6h       
 Group number             30
 Group order              24
 No. of unique centers     2
 
      Symmetry unique atoms
 
     1    7
 


                                Z-matrix (autoz)
                                -------- 

 Units are Angstrom for bonds and degrees for angles
 
      Type          Name      I     J     K     L     M      Value
      ----------- --------  ----- ----- ----- ----- ----- ----------
    1 Stretch                  1     5                       1.40376
    2 Stretch                  1     6                       1.40376
    3 Stretch                  1     7                       1.08231
    4 Stretch                  2     4                       1.40376
    5 Stretch                  2     6                       1.40376
    6 Stretch                  2     8                       1.08231
    7 Stretch                  3     4                       1.40376
    8 Stretch                  3     5                       1.40376
    9 Stretch                  3     9                       1.08231
   10 Stretch                  4    10                       1.08231
   11 Stretch                  5    11                       1.08231
   12 Stretch                  6    12                       1.08231
   13 Bend                     1     5     3               120.00000
   14 Bend                     1     5    11               120.00000
   15 Bend                     1     6     2               120.00000
   16 Bend                     1     6    12               120.00000
   17 Bend                     2     4     3               120.00000
   18 Bend                     2     4    10               120.00000
   19 Bend                     2     6    12               120.00000
   20 Bend                     3     4    10               120.00000
   21 Bend                     3     5    11               120.00000
   22 Bend                     4     2     6               120.00000
   23 Bend                     4     2     8               120.00000
   24 Bend                     4     3     5               120.00000
   25 Bend                     4     3     9               120.00000
   26 Bend                     5     1     6               120.00000
   27 Bend                     5     1     7               120.00000
   28 Bend                     5     3     9               120.00000
   29 Bend                     6     1     7               120.00000
   30 Bend                     6     2     8               120.00000
   31 Torsion                  1     5     3     4           0.00000
   32 Torsion                  1     5     3     9         180.00000
   33 Torsion                  1     6     2     4           0.00000
   34 Torsion                  1     6     2     8         180.00000
   35 Torsion                  2     4     3     5           0.00000
   36 Torsion                  2     4     3     9         180.00000
   37 Torsion                  2     6     1     5           0.00000
   38 Torsion                  2     6     1     7         180.00000
   39 Torsion                  3     4     2     6           0.00000
   40 Torsion                  3     4     2     8         180.00000
   41 Torsion                  3     5     1     6           0.00000
   42 Torsion                  3     5     1     7         180.00000
   43 Torsion                  4     2     6    12         180.00000
   44 Torsion                  4     3     5    11         180.00000
   45 Torsion                  5     1     6    12         180.00000
   46 Torsion                  5     3     4    10         180.00000
   47 Torsion                  6     1     5    11         180.00000
   48 Torsion                  6     2     4    10         180.00000
   49 Torsion                  7     1     5    11           0.00000
   50 Torsion                  7     1     6    12           0.00000
   51 Torsion                  8     2     4    10           0.00000
   52 Torsion                  8     2     6    12           0.00000
   53 Torsion                  9     3     4    10           0.00000
   54 Torsion                  9     3     5    11           0.00000
 
 
            XYZ format geometry
            -------------------
    12
 geometry
 C                     0.99261000     0.99261000     0.00000000
 C                    -1.35593048     0.36332048     0.00000000
 C                     0.36332048    -1.35593048     0.00000000
 C                    -0.99261000    -0.99261000     0.00000000
 C                     1.35593048    -0.36332048     0.00000000
 C                    -0.36332048     1.35593048     0.00000000
 H                     1.75792000     1.75792000     0.00000000
 H                    -2.40136338     0.64344338     0.00000000
 H                     0.64344338    -2.40136338     0.00000000
 H                    -1.75792000    -1.75792000     0.00000000
 H                     2.40136338    -0.64344338     0.00000000
 H                    -0.64344338     2.40136338     0.00000000
 
 ==============================================================================
                                internuclear distances
 ------------------------------------------------------------------------------
       center one      |      center two      | atomic units |  angstroms
 ------------------------------------------------------------------------------
    4 C                |   2 C                |     2.65273  |     1.40376
    4 C                |   3 C                |     2.65273  |     1.40376
    5 C                |   1 C                |     2.65273  |     1.40376
    5 C                |   3 C                |     2.65273  |     1.40376
    6 C                |   1 C                |     2.65273  |     1.40376
    6 C                |   2 C                |     2.65273  |     1.40376
    7 H                |   1 C                |     2.04527  |     1.08231
    8 H                |   2 C                |     2.04527  |     1.08231
    9 H                |   3 C                |     2.04527  |     1.08231
   10 H                |   4 C                |     2.04527  |     1.08231
   11 H                |   5 C                |     2.04527  |     1.08231
   12 H                |   6 C                |     2.04527  |     1.08231
 ------------------------------------------------------------------------------
                         number of included internuclear distances:         12
 ==============================================================================



 ==============================================================================
                                 internuclear angles
 ------------------------------------------------------------------------------
        center 1       |       center 2       |       center 3       |  degrees
 ------------------------------------------------------------------------------
    5 C                |   1 C                |   6 C                |   120.00
    5 C                |   1 C                |   7 H                |   120.00
    6 C                |   1 C                |   7 H                |   120.00
    4 C                |   2 C                |   6 C                |   120.00
    4 C                |   2 C                |   8 H                |   120.00
    6 C                |   2 C                |   8 H                |   120.00
    4 C                |   3 C                |   5 C                |   120.00
    4 C                |   3 C                |   9 H                |   120.00
    5 C                |   3 C                |   9 H                |   120.00
    2 C                |   4 C                |   3 C                |   120.00
    2 C                |   4 C                |  10 H                |   120.00
    3 C                |   4 C                |  10 H                |   120.00
    1 C                |   5 C                |   3 C                |   120.00
    1 C                |   5 C                |  11 H                |   120.00
    3 C                |   5 C                |  11 H                |   120.00
    1 C                |   6 C                |   2 C                |   120.00
    1 C                |   6 C                |  12 H                |   120.00
    2 C                |   6 C                |  12 H                |   120.00
 ------------------------------------------------------------------------------
                            number of included internuclear angles:         18
 ==============================================================================



  library name resolved from: environment
  library file name is: </home/niri/nwchem/nwchem-6.0/src/basis/libraries/>
  


 Summary of "ao basis" -> "" (cartesian)
 ------------------------------------------------------------------------------
       Tag                 Description            Shells   Functions and Types
 ---------------- ------------------------------  ------  ---------------------
 *                           3-21G                    on all atoms 


 
                                 NWChem DFT Module
                                 -----------------
 
 
                    using and scratch and permanent directories
 
 
                      Basis "ao basis" -> "ao basis" (cartesian)
                      -----
  C (Carbon)
  ----------
            Exponent  Coefficients 
       -------------- ---------------------------------------------------------
  1 S  1.72256000E+02  0.061767
  1 S  2.59109000E+01  0.358794
  1 S  5.53335000E+00  0.700713
 
  2 S  3.66498000E+00 -0.395897
  2 S  7.70545000E-01  1.215840
 
  3 P  3.66498000E+00  0.236460
  3 P  7.70545000E-01  0.860619
 
  4 S  1.95857000E-01  1.000000
 
  5 P  1.95857000E-01  1.000000
 
  H (Hydrogen)
  ------------
            Exponent  Coefficients 
       -------------- ---------------------------------------------------------
  1 S  5.44717800E+00  0.156285
  1 S  8.24547000E-01  0.904691
 
  2 S  1.83192000E-01  1.000000
 


 Summary of "ao basis" -> "ao basis" (cartesian)
 ------------------------------------------------------------------------------
       Tag                 Description            Shells   Functions and Types
 ---------------- ------------------------------  ------  ---------------------
 C                           3-21G                   5        9   3s2p
 H                           3-21G                   2        2   2s


  Caching 1-el integrals 
 
            General Information
            -------------------
          SCF calculation type: DFT
          Wavefunction type:  closed shell.
          No. of atoms     :    12
          No. of electrons :    42
           Alpha electrons :    21
            Beta electrons :    21
          Charge           :     0
          Spin multiplicity:     1
          Use of symmetry is: on ; symmetry adaption is: on 
          Maximum number of iterations:  30
          AO basis - number of functions:    66
                     number of shells:    42
          Convergence on energy requested: 1.00D-06
          Convergence on density requested: 1.00D-05
          Convergence on gradient requested: 5.00D-04
 
              XC Information
              --------------
                         B3LYP Method XC Potential
                     Hartree-Fock (Exact) Exchange  0.200          
                        Slater Exchange Functional  0.800 local    
                    Becke 1988 Exchange Functional  0.720 non-local
              Lee-Yang-Parr Correlation Functional  0.810          
                  VWN I RPA Correlation Functional  0.190 local    
 
             Grid Information
             ----------------
          Grid used for XC integration:  medium    
          Radial quadrature: Mura-Knowles        
          Angular quadrature: Lebedev. 
          Tag              B.-S. Rad. Rad. Pts. Rad. Cut. Ang. Pts.
          ---              ---------- --------- --------- ---------
          C                   0.70       49          10.0       434
          H                   0.35       45          11.0       434
          Grid pruning is: on 
          Number of quadrature shells:    94
          Spatial weights used:  Erf1
 
          Convergence Information
          -----------------------
          Convergence aids based upon iterative change in 
          total energy or number of iterations. 
          Levelshifting, if invoked, occurs when the 
          HOMO/LUMO gap drops below (HL_TOL): 1.00D-02
          DIIS, if invoked, will attempt to extrapolate 
          using up to (NFOCK): 10 stored Fock matrices.

                    Damping( 0%)  Levelshifting(0.5)       DIIS
                  --------------- ------------------- ---------------
          dE  on:    start            ASAP                start   
          dE off:    2 iters         30 iters            30 iters 

 
      Screening Tolerance Information
      -------------------------------
          Density screening/tol_rho: 1.00D-10
          AO Gaussian exp screening on grid/accAOfunc:  14
          CD Gaussian exp screening on grid/accCDfunc:  20
          XC Gaussian exp screening on grid/accXCfunc:  20
          Schwarz screening/accCoul: 1.00D-08

 
      Superposition of Atomic Density Guess
      -------------------------------------
 
 Sum of atomic energies:        -227.75976746
 
      Non-variational initial energy
      ------------------------------

 Total energy =    -231.937013
 1-e energy   =    -705.828643
 2-e energy   =     271.451090
 HOMO         =      -0.283977
 LUMO         =       0.017158
 
 
      Symmetry analysis of molecular orbitals - initial
      -------------------------------------------------
 
  Numbering of irreducible representations: 
 
     1 a1g         2 a1u         3 a2g         4 a2u         5 b1g     
     6 b1u         7 b2g         8 b2u         9 e1g        10 e1u     
    11 e2g        12 e2u     
 
  Orbital symmetries:
 
     1 a1g         2 e1u         3 e1u         4 b1u         5 e2g     
     6 e2g         7 a1g         8 e1u         9 e1u        10 e2g     
    11 e2g        12 a1g        13 b1u        14 b2u        15 e1u     
    16 e1u        17 a2u        18 e2g        19 e2g        20 e1g     
    21 e1g        22 e2u        23 e2u        24 a1g        25 b2g     
    26 e1u        27 e1u        28 e2g        29 e2g        30 b1u     
    31 e2g     
 
   Time after variat. SCF:      0.1
   Time prior to 1st pass:      0.1

 #quartets = 3.741D+04 #integrals = 1.411D+05 #direct =  0.0% #cached =100.0%


 Integral file          = ./scratch/c6h6-b3lyp.aoints.0
 Record size in doubles =  65536        No. of integs per rec  =  43688
 Max. records in memory =      3        Max. records in file   =   3202
 No. of bits per label  =      8        No. of bits per value  =     64


File balance: exchanges=     0  moved=     0  time=   0.0


 Grid_pts file          = ./scratch/c6h6-b3lyp.gridpts.0
 Record size in doubles =  12289        No. of grid_pts per rec  =   3070
 Max. records in memory =      5        Max. recs in file   =     17083


           Memory utilization after 1st SCF pass: 
           Heap Space remaining (MW):       12.85            12845578
          Stack Space remaining (MW):       13.11            13106547

   convergence    iter        energy       DeltaE   RMS-Dens  Diis-err    time
 ---------------- ----- ----------------- --------- --------- ---------  ------
 d= 0,ls=0.0,diis     1   -230.9167427388 -4.33D+02  8.30D-03  5.38D-01     0.3
 d= 0,ls=0.0,diis     2   -230.9729686416 -5.62D-02  2.54D-03  2.02D-02     0.4
 d= 0,ls=0.0,diis     3   -230.9743539554 -1.39D-03  1.42D-03  8.48D-03     0.5
 d= 0,ls=0.0,diis     4   -230.9755009661 -1.15D-03  2.73D-04  1.42D-04     0.6
 d= 0,ls=0.0,diis     5   -230.9755226961 -2.17D-05  1.04D-05  1.42D-07     0.6
 d= 0,ls=0.0,diis     6   -230.9755227222 -2.60D-08  6.69D-07  4.36D-10     0.7


         Total DFT energy =     -230.975522722192
      One electron energy =     -710.329238556731
           Coulomb energy =      311.561925534489
    Exchange-Corr. energy =      -34.648749254472
 Nuclear repulsion energy =      202.440539554522

 Numeric. integr. density =       41.999994036658

     Total iterative time =      0.6s


 
                       DFT Final Molecular Orbital Analysis
                       ------------------------------------
 
 Vector    6  Occ=2.000000D+00  E=-1.012684D+01  Symmetry=a1g
              MO Center=  2.6D-13, -5.7D-14,  3.5D-23, r^2= 2.0D+00
   Bfn.  Coefficient  Atom+Function         Bfn.  Coefficient  Atom+Function  
  ----- ------------  ---------------      ----- ------------  ---------------
    37     -0.402317   5 C  s                10     -0.402317   2 C  s         
     1     -0.402317   1 C  s                28     -0.402317   4 C  s         
    19     -0.402317   3 C  s                46     -0.402317   6 C  s         
 
 Vector    7  Occ=2.000000D+00  E=-8.521221D-01  Symmetry=a1g
              MO Center=  7.3D-17,  1.0D-16, -1.1D-33, r^2= 2.1D+00
   Bfn.  Coefficient  Atom+Function         Bfn.  Coefficient  Atom+Function  
  ----- ------------  ---------------      ----- ------------  ---------------
    42     -0.183418   5 C  s                51     -0.183418   6 C  s         
    33     -0.183418   4 C  s                 6     -0.183418   1 C  s         
    15     -0.183418   2 C  s                24     -0.183418   3 C  s         
 
 Vector    8  Occ=2.000000D+00  E=-7.447206D-01  Symmetry=e1u
              MO Center=  2.2D-17,  1.2D-16,  3.1D-34, r^2= 2.9D+00
   Bfn.  Coefficient  Atom+Function         Bfn.  Coefficient  Atom+Function  
  ----- ------------  ---------------      ----- ------------  ---------------
     6      0.314273   1 C  s                33     -0.314273   4 C  s         
    15     -0.223158   2 C  s                42      0.223158   5 C  s         
 
 Vector    9  Occ=2.000000D+00  E=-7.447206D-01  Symmetry=e1u
              MO Center= -9.5D-17, -1.5D-16,  2.2D-33, r^2= 2.9D+00
   Bfn.  Coefficient  Atom+Function         Bfn.  Coefficient  Atom+Function  
  ----- ------------  ---------------      ----- ------------  ---------------
    24     -0.310286   3 C  s                51      0.310286   6 C  s         
    42     -0.234051   5 C  s                15      0.234051   2 C  s         
 
 Vector   10  Occ=2.000000D+00  E=-6.043780D-01  Symmetry=e2g
              MO Center= -2.8D-16, -1.2D-16, -1.8D-33, r^2= 3.7D+00
   Bfn.  Coefficient  Atom+Function         Bfn.  Coefficient  Atom+Function  
  ----- ------------  ---------------      ----- ------------  ---------------
     6      0.321098   1 C  s                33      0.321098   4 C  s         
    24     -0.253246   3 C  s                51     -0.253246   6 C  s         
    13     -0.176430   2 C  py               40      0.176430   5 C  py        
 
 Vector   11  Occ=2.000000D+00  E=-6.043780D-01  Symmetry=e2g
              MO Center= -1.6D-16,  1.9D-16, -9.1D-33, r^2= 3.7D+00
   Bfn.  Coefficient  Atom+Function         Bfn.  Coefficient  Atom+Function  
  ----- ------------  ---------------      ----- ------------  ---------------
    15     -0.331598   2 C  s                42     -0.331598   5 C  s         
    51      0.224561   6 C  s                24      0.224561   3 C  s         
 
 Vector   12  Occ=2.000000D+00  E=-5.272458D-01  Symmetry=a1g
              MO Center= -9.0D-17,  4.2D-17, -2.9D-34, r^2= 4.2D+00
   Bfn.  Coefficient  Atom+Function         Bfn.  Coefficient  Atom+Function  
  ----- ------------  ---------------      ----- ------------  ---------------
    12     -0.167419   2 C  px               22     -0.167419   3 C  py        
    39      0.167419   5 C  px               49      0.167419   6 C  py        
 
 Vector   13  Occ=2.000000D+00  E=-4.627398D-01  Symmetry=b1u
              MO Center=  2.8D-17,  1.1D-16,  9.8D-33, r^2= 5.3D+00
   Bfn.  Coefficient  Atom+Function         Bfn.  Coefficient  Atom+Function  
  ----- ------------  ---------------      ----- ------------  ---------------
     6     -0.267477   1 C  s                33      0.267477   4 C  s         
    24     -0.267477   3 C  s                15     -0.267477   2 C  s         
    42      0.267477   5 C  s                51      0.267477   6 C  s         
 
 Vector   14  Occ=2.000000D+00  E=-4.507899D-01  Symmetry=b2u
              MO Center=  1.4D-16,  2.7D-17,  6.5D-50, r^2= 2.7D+00
   Bfn.  Coefficient  Atom+Function         Bfn.  Coefficient  Atom+Function  
  ----- ------------  ---------------      ----- ------------  ---------------
    40     -0.239172   5 C  py               48      0.239172   6 C  px        
    13     -0.239172   2 C  py               21      0.239172   3 C  px        
     3     -0.175086   1 C  px                4      0.175086   1 C  py        
    30     -0.175086   4 C  px               31      0.175086   4 C  py        
 
 Vector   15  Occ=2.000000D+00  E=-4.258447D-01  Symmetry=e1u
              MO Center=  4.2D-17,  1.1D-16, -2.4D-34, r^2= 4.0D+00
   Bfn.  Coefficient  Atom+Function         Bfn.  Coefficient  Atom+Function  
  ----- ------------  ---------------      ----- ------------  ---------------
    22      0.259507   3 C  py               49      0.259507   6 C  py        
    26      0.173084   3 C  py               53      0.173084   6 C  py        
    12     -0.155291   2 C  px               39     -0.155291   5 C  px        
    59     -0.154593   9 H  s                65      0.154593  12 H  s         
 
 Vector   16  Occ=2.000000D+00  E=-4.258447D-01  Symmetry=e1u
              MO Center=  3.6D-17,  4.3D-17, -5.3D-34, r^2= 4.0D+00
   Bfn.  Coefficient  Atom+Function         Bfn.  Coefficient  Atom+Function  
  ----- ------------  ---------------      ----- ------------  ---------------
    39     -0.208066   5 C  px               12     -0.208066   2 C  px        
    31     -0.192341   4 C  py                4     -0.192341   1 C  py        
 
 Vector   17  Occ=2.000000D+00  E=-3.639419D-01  Symmetry=a2u
              MO Center=  1.8D-15, -5.9D-15, -3.3D-17, r^2= 2.8D+00
   Bfn.  Coefficient  Atom+Function         Bfn.  Coefficient  Atom+Function  
  ----- ------------  ---------------      ----- ------------  ---------------
    23     -0.192218   3 C  pz               41     -0.192218   5 C  pz        
    32     -0.192218   4 C  pz               14     -0.192218   2 C  pz        
     5     -0.192218   1 C  pz               50     -0.192218   6 C  pz        
    27     -0.168743   3 C  pz               45     -0.168743   5 C  pz        
    36     -0.168743   4 C  pz               18     -0.168743   2 C  pz        
 
 Vector   18  Occ=2.000000D+00  E=-3.466067D-01  Symmetry=e2g
              MO Center=  6.9D-16, -3.5D-17, -2.0D-18, r^2= 4.2D+00
   Bfn.  Coefficient  Atom+Function         Bfn.  Coefficient  Atom+Function  
  ----- ------------  ---------------      ----- ------------  ---------------
    48     -0.225548   6 C  px               21      0.225548   3 C  px        
    30     -0.199546   4 C  px                3      0.199546   1 C  px        
    12      0.192403   2 C  px               39     -0.192403   5 C  px        
    43     -0.155330   5 C  px               16      0.155330   2 C  px        
     7      0.152055   1 C  px               34     -0.152055   4 C  px        
 
 Vector   19  Occ=2.000000D+00  E=-3.466067D-01  Symmetry=e2g
              MO Center= -1.5D-16,  3.9D-16, -2.3D-17, r^2= 4.2D+00
   Bfn.  Coefficient  Atom+Function         Bfn.  Coefficient  Atom+Function  
  ----- ------------  ---------------      ----- ------------  ---------------
    13      0.219262   2 C  py               40     -0.219262   5 C  py        
    31     -0.212119   4 C  py                4      0.212119   1 C  py        
    22      0.186117   3 C  py               49     -0.186117   6 C  py        
    66     -0.159590  12 H  s                60     -0.159590   9 H  s         
    59     -0.159277   9 H  s                65     -0.159277  12 H  s         
 
 Vector   20  Occ=2.000000D+00  E=-2.501368D-01  Symmetry=e1g
              MO Center=  1.9D-15,  4.3D-15,  1.7D-19, r^2= 3.0D+00
   Bfn.  Coefficient  Atom+Function         Bfn.  Coefficient  Atom+Function  
  ----- ------------  ---------------      ----- ------------  ---------------
     9      0.284181   1 C  pz               36     -0.284181   4 C  pz        
     5      0.271349   1 C  pz               32     -0.271349   4 C  pz        
    54      0.239833   6 C  pz               27     -0.239833   3 C  pz        
    50      0.229003   6 C  pz               23     -0.229003   3 C  pz        
 
 Vector   21  Occ=2.000000D+00  E=-2.501368D-01  Symmetry=e1g
              MO Center= -3.8D-15,  1.7D-15,  1.5D-17, r^2= 3.0D+00
   Bfn.  Coefficient  Atom+Function         Bfn.  Coefficient  Atom+Function  
  ----- ------------  ---------------      ----- ------------  ---------------
    18      0.302540   2 C  pz               45     -0.302540   5 C  pz        
    14      0.288878   2 C  pz               41     -0.288878   5 C  pz        
    54      0.189677   6 C  pz               27     -0.189677   3 C  pz        
    50      0.181111   6 C  pz               23     -0.181111   3 C  pz        
 
 Vector   22  Occ=0.000000D+00  E= 3.850269D-03  Symmetry=e2u
              MO Center=  1.3D-15,  2.0D-15, -3.9D-16, r^2= 3.3D+00
   Bfn.  Coefficient  Atom+Function         Bfn.  Coefficient  Atom+Function  
  ----- ------------  ---------------      ----- ------------  ---------------
     9      0.521928   1 C  pz               36      0.521928   4 C  pz        
    54     -0.364290   6 C  pz               27     -0.364290   3 C  pz        
     5      0.306322   1 C  pz               32      0.306322   4 C  pz        
    50     -0.213804   6 C  pz               23     -0.213804   3 C  pz        
    45     -0.157638   5 C  pz               18     -0.157638   2 C  pz        
 
 Vector   23  Occ=0.000000D+00  E= 3.850269D-03  Symmetry=e2u
              MO Center= -2.5D-33,  1.1D-16,  1.9D-17, r^2= 3.3D+00
   Bfn.  Coefficient  Atom+Function         Bfn.  Coefficient  Atom+Function  
  ----- ------------  ---------------      ----- ------------  ---------------
    18     -0.511658   2 C  pz               45     -0.511658   5 C  pz        
    54      0.392348   6 C  pz               27      0.392348   3 C  pz        
    41     -0.300295   5 C  pz               14     -0.300295   2 C  pz        
    50      0.230271   6 C  pz               23      0.230271   3 C  pz        
 
 Vector   24  Occ=0.000000D+00  E= 1.075825D-01  Symmetry=a1g
              MO Center=  6.0D-15, -6.1D-15,  5.9D-18, r^2= 7.9D+00
   Bfn.  Coefficient  Atom+Function         Bfn.  Coefficient  Atom+Function  
  ----- ------------  ---------------      ----- ------------  ---------------
    56      0.704059   7 H  s                60      0.704059   9 H  s         
    62      0.704059  10 H  s                66      0.704059  12 H  s         
    64      0.704059  11 H  s                58      0.704059   8 H  s         
    33     -0.512066   4 C  s                42     -0.512066   5 C  s         
    15     -0.512066   2 C  s                 6     -0.512066   1 C  s         
 
 Vector   25  Occ=0.000000D+00  E= 1.621726D-01  Symmetry=b2g
              MO Center= -1.0D-15, -2.2D-15, -1.8D-30, r^2= 3.5D+00
   Bfn.  Coefficient  Atom+Function         Bfn.  Coefficient  Atom+Function  
  ----- ------------  ---------------      ----- ------------  ---------------
    36     -0.533344   4 C  pz               27      0.533344   3 C  pz        
    18      0.533344   2 C  pz               45     -0.533344   5 C  pz        
    54     -0.533344   6 C  pz                9      0.533344   1 C  pz        
    32     -0.251890   4 C  pz               23      0.251890   3 C  pz        
    41     -0.251890   5 C  pz               50     -0.251890   6 C  pz        
 
 Vector   26  Occ=0.000000D+00  E= 1.650624D-01  Symmetry=e1u
              MO Center= -7.5D-15,  5.6D-15,  6.7D-18, r^2= 8.2D+00
   Bfn.  Coefficient  Atom+Function         Bfn.  Coefficient  Atom+Function  
  ----- ------------  ---------------      ----- ------------  ---------------
    58      1.061927   8 H  s                64     -1.061927  11 H  s         
    66      0.849370  12 H  s                60     -0.849370   9 H  s         
    15     -0.699651   2 C  s                42      0.699651   5 C  s         
    51     -0.559608   6 C  s                24      0.559608   3 C  s         
    16      0.559458   2 C  px               43      0.559458   5 C  px        
 
 Vector   27  Occ=0.000000D+00  E= 1.650624D-01  Symmetry=e1u
              MO Center= -8.3D-15,  2.3D-14,  7.4D-18, r^2= 8.2D+00
   Bfn.  Coefficient  Atom+Function         Bfn.  Coefficient  Atom+Function  
  ----- ------------  ---------------      ----- ------------  ---------------
    56      1.103488   7 H  s                62     -1.103488  10 H  s         
    66      0.735823  12 H  s                60     -0.735823   9 H  s         
     6     -0.727033   1 C  s                33      0.727033   4 C  s         
    51     -0.484797   6 C  s                24      0.484797   3 C  s         
     7     -0.427701   1 C  px               34     -0.427701   4 C  px        
 
 Vector   28  Occ=0.000000D+00  E= 2.053488D-01  Symmetry=e2g
              MO Center= -8.8D-15, -1.2D-14,  3.1D-16, r^2= 7.9D+00
   Bfn.  Coefficient  Atom+Function         Bfn.  Coefficient  Atom+Function  
  ----- ------------  ---------------      ----- ------------  ---------------
    33     -1.483142   4 C  s                 6     -1.483142   1 C  s         
    62      1.055067  10 H  s                56      1.055067   7 H  s         
    42      1.046932   5 C  s                15      1.046932   2 C  s         
    64     -0.744759  11 H  s                58     -0.744759   8 H  s         
    51      0.436209   6 C  s                24      0.436209   3 C  s         
 
 Vector   29  Occ=0.000000D+00  E= 2.053488D-01  Symmetry=e2g
              MO Center=  2.6D-13, -4.2D-13, -6.3D-17, r^2= 7.9D+00
   Bfn.  Coefficient  Atom+Function         Bfn.  Coefficient  Atom+Function  
  ----- ------------  ---------------      ----- ------------  ---------------
    24      1.460739   3 C  s                51      1.460739   6 C  s         
    42     -1.108138   5 C  s                15     -1.108138   2 C  s         
    60     -1.039130   9 H  s                66     -1.039130  12 H  s         
    64      0.788299  11 H  s                58      0.788299   8 H  s         
    33     -0.352601   4 C  s                 6     -0.352601   1 C  s         
 
 Vector   30  Occ=0.000000D+00  E= 2.116516D-01  Symmetry=b1u
              MO Center= -2.4D-13,  3.9D-13,  7.0D-19, r^2= 8.9D+00
   Bfn.  Coefficient  Atom+Function         Bfn.  Coefficient  Atom+Function  
  ----- ------------  ---------------      ----- ------------  ---------------
    66     -0.972746  12 H  s                58      0.972746   8 H  s         
    56      0.972746   7 H  s                62     -0.972746  10 H  s         
    64     -0.972746  11 H  s                60      0.972746   9 H  s         
    53      0.721786   6 C  py               16      0.721786   2 C  px        
    43      0.721786   5 C  px               26      0.721786   3 C  py        
 
 Vector   31  Occ=0.000000D+00  E= 3.217240D-01  Symmetry=e2g
              MO Center= -2.1D-15, -1.1D-16,  1.6D-17, r^2= 4.8D+00
   Bfn.  Coefficient  Atom+Function         Bfn.  Coefficient  Atom+Function  
  ----- ------------  ---------------      ----- ------------  ---------------
    51     -1.388166   6 C  s                24     -1.388166   3 C  s         
    15      1.320276   2 C  s                42      1.320276   5 C  s         
    26     -1.286947   3 C  py               53      1.286947   6 C  py        
    43     -1.242397   5 C  px               16      1.242397   2 C  px        
    60     -0.758005   9 H  s                66     -0.758005  12 H  s         
 
 Vector   32  Occ=0.000000D+00  E= 3.217240D-01  Symmetry=e2g
              MO Center= -2.5D-15, -1.6D-15,  2.9D-17, r^2= 4.8D+00
   Bfn.  Coefficient  Atom+Function         Bfn.  Coefficient  Atom+Function  
  ----- ------------  ---------------      ----- ------------  ---------------
     6      1.563720   1 C  s                33      1.563720   4 C  s         
    35      1.011863   4 C  py                8     -1.011863   1 C  py        
    34      0.967261   4 C  px                7     -0.967261   1 C  px        
    62      0.853865  10 H  s                56      0.853865   7 H  s         
    42     -0.840654   5 C  s                15     -0.840654   2 C  s         
 
 Vector   33  Occ=0.000000D+00  E= 3.331762D-01  Symmetry=e1u
              MO Center=  5.5D-15,  9.2D-15,  2.5D-17, r^2= 4.6D+00
   Bfn.  Coefficient  Atom+Function         Bfn.  Coefficient  Atom+Function  
  ----- ------------  ---------------      ----- ------------  ---------------
    15      1.481401   2 C  s                42     -1.481401   5 C  s         
    24     -1.338993   3 C  s                51      1.338993   6 C  s         
     7      1.223937   1 C  px               34      1.223937   4 C  px        
     8     -1.200133   1 C  py               35     -1.200133   4 C  py        
    52      0.994194   6 C  px               25      0.994194   3 C  px        
 
 Vector   34  Occ=0.000000D+00  E= 3.331762D-01  Symmetry=e1u
              MO Center= -5.3D-15,  3.8D-15, -7.0D-18, r^2= 4.6D+00
   Bfn.  Coefficient  Atom+Function         Bfn.  Coefficient  Atom+Function  
  ----- ------------  ---------------      ----- ------------  ---------------
    33     -1.628355   4 C  s                 6      1.628355   1 C  s         
    17     -1.485117   2 C  py               44     -1.485117   5 C  py        
    52     -1.332775   6 C  px               25     -1.332775   3 C  px        
    51      0.937506   6 C  s                24     -0.937506   3 C  s         
    15     -0.690849   2 C  s                42      0.690849   5 C  s         
 
 Vector   35  Occ=0.000000D+00  E= 5.685785D-01  Symmetry=b1u
              MO Center= -2.2D-15, -2.6D-15,  1.2D-31, r^2= 3.8D+00
   Bfn.  Coefficient  Atom+Function         Bfn.  Coefficient  Atom+Function  
  ----- ------------  ---------------      ----- ------------  ---------------
     6     -2.367605   1 C  s                24     -2.367605   3 C  s         
    33      2.367605   4 C  s                51      2.367605   6 C  s         
    42      2.367605   5 C  s                15     -2.367605   2 C  s         
    43     -1.856083   5 C  px               26     -1.856083   3 C  py        
    16     -1.856083   2 C  px               53     -1.856083   6 C  py        
 

 center of mass
 --------------
 x =   0.00000000 y =   0.00000000 z =   0.00000000

 moments of inertia (a.u.)
 ------------------
         320.062201089014           0.000000000000           0.000000000000
           0.000000000000         320.062201089014           0.000000000000
           0.000000000000           0.000000000000         640.124402178028
 
     Multipole analysis of the density
     ---------------------------------
 
     L   x y z        total         alpha         beta         nuclear
     -   - - -        -----         -----         ----         -------
     0   0 0 0      0.000000    -21.000000    -21.000000     42.000000
 
     1   1 0 0      0.000000      0.000000      0.000000      0.000000
     1   0 1 0      0.000000      0.000000      0.000000      0.000000
     1   0 0 1      0.000000      0.000000      0.000000      0.000000
 
     2   2 0 0    -23.154082   -108.016459   -108.016459    192.878835
     2   1 1 0      0.000000      0.000000      0.000000      0.000000
     2   1 0 1      0.000000      0.000000      0.000000      0.000000
     2   0 2 0    -23.154082   -108.016459   -108.016459    192.878835
     2   0 1 1      0.000000      0.000000      0.000000      0.000000
     2   0 0 2    -29.714345    -14.857172    -14.857172      0.000000
 

 Parallel integral file used       4 records with       0 large values


 Task  times  cpu:        0.7s     wall:        1.2s
 
 
                                NWChem Input Module
                                -------------------
 
 
 
 
                           NWChem Geometry Optimization
                           ----------------------------
 
 
 
 
                    using and scratch and permanent directories
 
 
 maximum gradient threshold         (gmax) =   0.000450
 rms gradient threshold             (grms) =   0.000300
 maximum cartesian step threshold   (xmax) =   0.001800
 rms cartesian step threshold       (xrms) =   0.001200
 fixed trust radius                (trust) =   0.300000
 maximum step size to saddle      (sadstp) =   0.100000
 energy precision                  (eprec) =   5.0D-06
 maximum number of steps          (nptopt) =   20
 initial hessian option           (inhess) =    0
 line search option               (linopt) =    1
 hessian update option            (modupd) =    1
 saddle point option              (modsad) =    0
 initial eigen-mode to follow     (moddir) =    0
 initial variable to follow       (vardir) =    0
 follow first negative mode     (firstneg) =    T
 apply conjugacy                    (opcg) =    F
 source of zmatrix                         =   autoz   


          -------------------
          Energy Minimization
          -------------------

 
 Names of Z-matrix variables 
    1              2              3              4              5         
    6              7              8              9             10         
   11             12             13             14             15         
   16             17             18             19             20         
   21             22             23             24             25         
   26             27             28             29             30         
   31             32             33             34             35         
   36             37             38             39             40         
   41             42             43             44             45         
   46             47             48             49             50         
   51             52             53             54         
 
 Variables with the same non-blank name are constrained to be equal
 
 
 Using diagonal initial Hessian 
 Scaling for Hessian diagonals: bonds = 1.00  angles = 0.25  torsions = 0.10

          --------
          Step   0
          --------
 
 
                         Geometry "geometry" -> "geometry"
                         ---------------------------------
 
 Output coordinates in angstroms (scale by  1.889725989 to convert to a.u.)
 
  No.       Tag          Charge          X              Y              Z
 ---- ---------------- ---------- -------------- -------------- --------------
    1 C                    6.0000     0.99261000     0.99261000     0.00000000
    2 C                    6.0000    -1.35593048     0.36332048     0.00000000
    3 C                    6.0000     0.36332048    -1.35593048     0.00000000
    4 C                    6.0000    -0.99261000    -0.99261000     0.00000000
    5 C                    6.0000     1.35593048    -0.36332048     0.00000000
    6 C                    6.0000    -0.36332048     1.35593048     0.00000000
    7 H                    1.0000     1.75792000     1.75792000     0.00000000
    8 H                    1.0000    -2.40136338     0.64344338     0.00000000
    9 H                    1.0000     0.64344338    -2.40136338     0.00000000
   10 H                    1.0000    -1.75792000    -1.75792000     0.00000000
   11 H                    1.0000     2.40136338    -0.64344338     0.00000000
   12 H                    1.0000    -0.64344338     2.40136338     0.00000000
 
      Atomic Mass 
      ----------- 
 
      C                 12.000000
      H                  1.007825
 

 Effective nuclear repulsion energy (a.u.)     202.4405395545

            Nuclear Dipole moment (a.u.) 
            ----------------------------
        X                 Y               Z
 ---------------- ---------------- ----------------
     0.0000000000     0.0000000000     0.0000000000
 
      Symmetry information
      --------------------
 
 Group name             D6h       
 Group number             30
 Group order              24
 No. of unique centers     2
 
      Symmetry unique atoms
 
     1    7
 
 
                                 NWChem DFT Module
                                 -----------------
 
 
                    using and scratch and permanent directories
 
 

  The DFT is already converged 

         Total DFT energy =   -230.975522722192

 
 
                            NWChem DFT Gradient Module
                            --------------------------
 
 
                    using and scratch and permanent directories
 
 

  charge          =   0.00
  wavefunction    = closed shell

  Using symmetry


                         DFT ENERGY GRADIENTS

    atom               coordinates                        gradient
                 x          y          z           x          y          z
   1 C       1.875761   1.875761   0.000000    0.005117   0.005117   0.000000
   2 C      -2.562337   0.686576   0.000000   -0.006990   0.001873   0.000000
   3 C       0.686576  -2.562337   0.000000    0.001873  -0.006990   0.000000
   4 C      -1.875761  -1.875761   0.000000   -0.005117  -0.005117   0.000000
   5 C       2.562337  -0.686576   0.000000    0.006990  -0.001873   0.000000
   6 C      -0.686576   2.562337   0.000000   -0.001873   0.006990   0.000000
   7 H       3.321987   3.321987   0.000000   -0.000813  -0.000813   0.000000
   8 H      -4.537919   1.215932   0.000000    0.001111  -0.000298   0.000000
   9 H       1.215932  -4.537919   0.000000   -0.000298   0.001111   0.000000
  10 H      -3.321987  -3.321987   0.000000    0.000813   0.000813   0.000000
  11 H       4.537919  -1.215932   0.000000   -0.001111   0.000298   0.000000
  12 H      -1.215932   4.537919   0.000000    0.000298  -0.001111   0.000000
 
                 ----------------------------------------
                 |  Time  |  1-e(secs)   |  2-e(secs)   |
                 ----------------------------------------
                 |  CPU   |       0.00   |       0.07   |
                 ----------------------------------------
                 |  WALL  |       0.00   |       0.07   |
                 ----------------------------------------

@ Step       Energy      Delta E   Gmax     Grms     Xrms     Xmax   Walltime
@ ---- ---------------- -------- -------- -------- -------- -------- --------
@    0    -230.97552272  0.0D+00  0.00609  0.00206  0.00000  0.00000      1.5
                                                       ok       ok  



                                Z-matrix (autoz)
                                -------- 

 Units are Angstrom for bonds and degrees for angles
 
      Type          Name      I     J     K     L     M      Value     Gradient
      ----------- --------  ----- ----- ----- ----- ----- ---------- ----------
    1 Stretch                  1     5                       1.40376    0.00609
    2 Stretch                  1     6                       1.40376    0.00609
    3 Stretch                  1     7                       1.08231   -0.00115
    4 Stretch                  2     4                       1.40376    0.00609
    5 Stretch                  2     6                       1.40376    0.00609
    6 Stretch                  2     8                       1.08231   -0.00115
    7 Stretch                  3     4                       1.40376    0.00609
    8 Stretch                  3     5                       1.40376    0.00609
    9 Stretch                  3     9                       1.08231   -0.00115
   10 Stretch                  4    10                       1.08231   -0.00115
   11 Stretch                  5    11                       1.08231   -0.00115
   12 Stretch                  6    12                       1.08231   -0.00115
   13 Bend                     1     5     3               120.00000    0.00000
   14 Bend                     1     5    11               120.00000    0.00000
   15 Bend                     1     6     2               120.00000    0.00000
   16 Bend                     1     6    12               120.00000    0.00000
   17 Bend                     2     4     3               120.00000    0.00000
   18 Bend                     2     4    10               120.00000    0.00000
   19 Bend                     2     6    12               120.00000    0.00000
   20 Bend                     3     4    10               120.00000    0.00000
   21 Bend                     3     5    11               120.00000    0.00000
   22 Bend                     4     2     6               120.00000    0.00000
   23 Bend                     4     2     8               120.00000    0.00000
   24 Bend                     4     3     5               120.00000    0.00000
   25 Bend                     4     3     9               120.00000    0.00000
   26 Bend                     5     1     6               120.00000    0.00000
   27 Bend                     5     1     7               120.00000    0.00000
   28 Bend                     5     3     9               120.00000    0.00000
   29 Bend                     6     1     7               120.00000    0.00000
   30 Bend                     6     2     8               120.00000    0.00000
   31 Torsion                  1     5     3     4           0.00000    0.00000
   32 Torsion                  1     5     3     9         180.00000    0.00000
   33 Torsion                  1     6     2     4           0.00000    0.00000
   34 Torsion                  1     6     2     8         180.00000    0.00000
   35 Torsion                  2     4     3     5           0.00000    0.00000
   36 Torsion                  2     4     3     9         180.00000    0.00000
   37 Torsion                  2     6     1     5           0.00000    0.00000
   38 Torsion                  2     6     1     7         180.00000    0.00000
   39 Torsion                  3     4     2     6           0.00000    0.00000
   40 Torsion                  3     4     2     8         180.00000    0.00000
   41 Torsion                  3     5     1     6           0.00000    0.00000
   42 Torsion                  3     5     1     7         180.00000    0.00000
   43 Torsion                  4     2     6    12         180.00000    0.00000
   44 Torsion                  4     3     5    11         180.00000    0.00000
   45 Torsion                  5     1     6    12         180.00000    0.00000
   46 Torsion                  5     3     4    10         180.00000    0.00000
   47 Torsion                  6     1     5    11         180.00000    0.00000
   48 Torsion                  6     2     4    10         180.00000    0.00000
   49 Torsion                  7     1     5    11           0.00000    0.00000
   50 Torsion                  7     1     6    12           0.00000    0.00000
   51 Torsion                  8     2     4    10           0.00000    0.00000
   52 Torsion                  8     2     6    12           0.00000    0.00000
   53 Torsion                  9     3     4    10           0.00000    0.00000
   54 Torsion                  9     3     5    11           0.00000    0.00000
 
 
                                 NWChem DFT Module
                                 -----------------
 
 
                    using and scratch and permanent directories
 
 
  Caching 1-el integrals 
 
            General Information
            -------------------
          SCF calculation type: DFT
          Wavefunction type:  closed shell.
          No. of atoms     :    12
          No. of electrons :    42
           Alpha electrons :    21
            Beta electrons :    21
          Charge           :     0
          Spin multiplicity:     1
          Use of symmetry is: on ; symmetry adaption is: on 
          Maximum number of iterations:  30
          AO basis - number of functions:    66
                     number of shells:    42
          Convergence on energy requested: 1.00D-06
          Convergence on density requested: 1.00D-05
          Convergence on gradient requested: 5.00D-04
 
              XC Information
              --------------
                         B3LYP Method XC Potential
                     Hartree-Fock (Exact) Exchange  0.200          
                        Slater Exchange Functional  0.800 local    
                    Becke 1988 Exchange Functional  0.720 non-local
              Lee-Yang-Parr Correlation Functional  0.810          
                  VWN I RPA Correlation Functional  0.190 local    
 
             Grid Information
             ----------------
          Grid used for XC integration:  medium    
          Radial quadrature: Mura-Knowles        
          Angular quadrature: Lebedev. 
          Tag              B.-S. Rad. Rad. Pts. Rad. Cut. Ang. Pts.
          ---              ---------- --------- --------- ---------
          C                   0.70       49          10.0       434
          H                   0.35       45          11.0       434
          Grid pruning is: on 
          Number of quadrature shells:    94
          Spatial weights used:  Erf1
 
          Convergence Information
          -----------------------
          Convergence aids based upon iterative change in 
          total energy or number of iterations. 
          Levelshifting, if invoked, occurs when the 
          HOMO/LUMO gap drops below (HL_TOL): 1.00D-02
          DIIS, if invoked, will attempt to extrapolate 
          using up to (NFOCK): 10 stored Fock matrices.

                    Damping( 0%)  Levelshifting(0.5)       DIIS
                  --------------- ------------------- ---------------
          dE  on:    start            ASAP                start   
          dE off:    2 iters         30 iters            30 iters 

 
      Screening Tolerance Information
      -------------------------------
          Density screening/tol_rho: 1.00D-10
          AO Gaussian exp screening on grid/accAOfunc:  14
          CD Gaussian exp screening on grid/accCDfunc:  20
          XC Gaussian exp screening on grid/accXCfunc:  20
          Schwarz screening/accCoul: 1.00D-08


 Loading old vectors from job with title :

using and scratch and permanent directories

 
      Symmetry analysis of molecular orbitals - initial
      -------------------------------------------------
 
  Numbering of irreducible representations: 
 
     1 a1g         2 a1u         3 a2g         4 a2u         5 b1g     
     6 b1u         7 b2g         8 b2u         9 e1g        10 e1u     
    11 e2g        12 e2u     
 
  Orbital symmetries:
 
     1 b1u         2 e2g         3 e2g         4 e1u         5 e1u     
     6 a1g         7 a1g         8 e1u         9 e1u        10 e2g     
    11 e2g        12 a1g        13 b1u        14 b2u        15 e1u     
    16 e1u        17 a2u        18 e2g        19 e2g        20 e1g     
    21 e1g        22 e2u        23 e2u        24 a1g        25 b2g     
    26 e1u        27 e1u        28 e2g        29 e2g        30 b1u     
    31 e2g     
 
   Time after variat. SCF:      1.0
   Time prior to 1st pass:      1.0

 #quartets = 3.653D+04 #integrals = 1.414D+05 #direct =  0.0% #cached =100.0%


 Integral file          = ./scratch/c6h6-b3lyp.aoints.0
 Record size in doubles =  65536        No. of integs per rec  =  43688
 Max. records in memory =      3        Max. records in file   =   3200
 No. of bits per label  =      8        No. of bits per value  =     64


File balance: exchanges=     0  moved=     0  time=   0.0


 Grid_pts file          = ./scratch/c6h6-b3lyp.gridpts.0
 Record size in doubles =  12289        No. of grid_pts per rec  =   3070
 Max. records in memory =      5        Max. recs in file   =     17073


           Memory utilization after 1st SCF pass: 
           Heap Space remaining (MW):       12.85            12845290
          Stack Space remaining (MW):       13.11            13106547

   convergence    iter        energy       DeltaE   RMS-Dens  Diis-err    time
 ---------------- ----- ----------------- --------- --------- ---------  ------
 d= 0,ls=0.0,diis     1   -230.9756891515 -4.34D+02  4.37D-04  6.68D-04     1.2
 d= 0,ls=0.0,diis     2   -230.9757480396 -5.89D-05  1.90D-04  7.39D-05     1.3
 d= 0,ls=0.0,diis     3   -230.9757544284 -6.39D-06  7.62D-05  2.43D-05     1.4
 d= 0,ls=0.0,diis     4   -230.9757578665 -3.44D-06  2.52D-06  1.68D-08     1.5
 d= 0,ls=0.0,diis     5   -230.9757578691 -2.56D-09  1.16D-07  1.71D-11     1.6


         Total DFT energy =     -230.975757869054
      One electron energy =     -711.900695298880
           Coulomb energy =      312.358146021151
    Exchange-Corr. energy =      -34.668834276697
 Nuclear repulsion energy =      203.235625685372

 Numeric. integr. density =       41.999994166889

     Total iterative time =      0.6s


 
                       DFT Final Molecular Orbital Analysis
                       ------------------------------------
 
 Vector    6  Occ=2.000000D+00  E=-1.012539D+01  Symmetry=a1g
              MO Center=  1.6D-12,  5.6D-12,  3.2D-30, r^2= 2.0D+00
   Bfn.  Coefficient  Atom+Function         Bfn.  Coefficient  Atom+Function  
  ----- ------------  ---------------      ----- ------------  ---------------
     1     -0.402314   1 C  s                46     -0.402314   6 C  s         
    10     -0.402314   2 C  s                37     -0.402314   5 C  s         
    19     -0.402314   3 C  s                28     -0.402314   4 C  s         
 
 Vector    7  Occ=2.000000D+00  E=-8.557241D-01  Symmetry=a1g
              MO Center= -4.8D-17,  1.6D-17, -6.3D-33, r^2= 2.1D+00
   Bfn.  Coefficient  Atom+Function         Bfn.  Coefficient  Atom+Function  
  ----- ------------  ---------------      ----- ------------  ---------------
     6     -0.181942   1 C  s                15     -0.181942   2 C  s         
    33     -0.181942   4 C  s                42     -0.181942   5 C  s         
    51     -0.181942   6 C  s                24     -0.181942   3 C  s         
 
 Vector    8  Occ=2.000000D+00  E=-7.463101D-01  Symmetry=e1u
              MO Center= -3.1D-17, -4.0D-16, -2.0D-33, r^2= 2.9D+00
   Bfn.  Coefficient  Atom+Function         Bfn.  Coefficient  Atom+Function  
  ----- ------------  ---------------      ----- ------------  ---------------
    24      0.322910   3 C  s                51     -0.322910   6 C  s         
    42      0.175887   5 C  s                15     -0.175887   2 C  s         
 
 Vector    9  Occ=2.000000D+00  E=-7.463101D-01  Symmetry=e1u
              MO Center= -7.7D-15, -6.6D-15, -3.6D-16, r^2= 2.9D+00
   Bfn.  Coefficient  Atom+Function         Bfn.  Coefficient  Atom+Function  
  ----- ------------  ---------------      ----- ------------  ---------------
     6      0.287981   1 C  s                33     -0.287981   4 C  s         
    15     -0.271316   2 C  s                42      0.271316   5 C  s         
 
 Vector   10  Occ=2.000000D+00  E=-6.048469D-01  Symmetry=e2g
              MO Center=  6.1D-15,  7.8D-15,  1.4D-30, r^2= 3.7D+00
   Bfn.  Coefficient  Atom+Function         Bfn.  Coefficient  Atom+Function  
  ----- ------------  ---------------      ----- ------------  ---------------
     6     -0.318275   1 C  s                33     -0.318275   4 C  s         
    24      0.259483   3 C  s                51      0.259483   6 C  s         
    40     -0.179126   5 C  py               13      0.179126   2 C  py        
 
 Vector   11  Occ=2.000000D+00  E=-6.048469D-01  Symmetry=e2g
              MO Center= -1.4D-15, -2.3D-15, -2.5D-16, r^2= 3.7D+00
   Bfn.  Coefficient  Atom+Function         Bfn.  Coefficient  Atom+Function  
  ----- ------------  ---------------      ----- ------------  ---------------
    42      0.333569   5 C  s                15      0.333569   2 C  s         
    24     -0.217699   3 C  s                51     -0.217699   6 C  s         
 
 Vector   12  Occ=2.000000D+00  E=-5.284809D-01  Symmetry=a1g
              MO Center=  8.6D-15, -1.1D-15, -8.0D-17, r^2= 4.2D+00
   Bfn.  Coefficient  Atom+Function         Bfn.  Coefficient  Atom+Function  
  ----- ------------  ---------------      ----- ------------  ---------------
    39      0.167088   5 C  px               22     -0.167088   3 C  py        
    49      0.167088   6 C  py               12     -0.167088   2 C  px        
 
 Vector   13  Occ=2.000000D+00  E=-4.605773D-01  Symmetry=b1u
              MO Center=  5.3D-16, -3.3D-16, -6.7D-33, r^2= 5.2D+00
   Bfn.  Coefficient  Atom+Function         Bfn.  Coefficient  Atom+Function  
  ----- ------------  ---------------      ----- ------------  ---------------
    42      0.268313   5 C  s                24     -0.268313   3 C  s         
     6     -0.268313   1 C  s                33      0.268313   4 C  s         
    15     -0.268313   2 C  s                51      0.268313   6 C  s         
 
 Vector   14  Occ=2.000000D+00  E=-4.528283D-01  Symmetry=b2u
              MO Center=  1.7D-15,  2.6D-15,  2.2D-31, r^2= 2.7D+00
   Bfn.  Coefficient  Atom+Function         Bfn.  Coefficient  Atom+Function  
  ----- ------------  ---------------      ----- ------------  ---------------
    40      0.239771   5 C  py               13      0.239771   2 C  py        
    48     -0.239771   6 C  px               21     -0.239771   3 C  px        
     4     -0.175525   1 C  py               31     -0.175525   4 C  py        
    30      0.175525   4 C  px                3      0.175525   1 C  px        
 
 Vector   15  Occ=2.000000D+00  E=-4.261764D-01  Symmetry=e1u
              MO Center= -3.4D-15, -6.9D-15,  3.9D-18, r^2= 4.0D+00
   Bfn.  Coefficient  Atom+Function         Bfn.  Coefficient  Atom+Function  
  ----- ------------  ---------------      ----- ------------  ---------------
    31     -0.196765   4 C  py                4     -0.196765   1 C  py        
    12     -0.172931   2 C  px               39     -0.172931   5 C  px        
    30     -0.168104   4 C  px                3     -0.168104   1 C  px        
 
 Vector   16  Occ=2.000000D+00  E=-4.261764D-01  Symmetry=e1u
              MO Center=  4.7D-16,  8.5D-15,  1.3D-17, r^2= 4.0D+00
   Bfn.  Coefficient  Atom+Function         Bfn.  Coefficient  Atom+Function  
  ----- ------------  ---------------      ----- ------------  ---------------
    49     -0.256040   6 C  py               22     -0.256040   3 C  py        
    39      0.193978   5 C  px               12      0.193978   2 C  px        
    53     -0.168448   6 C  py               26     -0.168448   3 C  py        
    65     -0.150072  12 H  s                59      0.150072   9 H  s         
 
 Vector   17  Occ=2.000000D+00  E=-3.663396D-01  Symmetry=a2u
              MO Center= -2.0D-15,  2.9D-15, -1.1D-16, r^2= 2.8D+00
   Bfn.  Coefficient  Atom+Function         Bfn.  Coefficient  Atom+Function  
  ----- ------------  ---------------      ----- ------------  ---------------
    50      0.192410   6 C  pz                5      0.192410   1 C  pz        
    32      0.192410   4 C  pz               14      0.192410   2 C  pz        
    41      0.192410   5 C  pz               23      0.192410   3 C  pz        
    18      0.167883   2 C  pz                9      0.167883   1 C  pz        
    54      0.167883   6 C  pz               27      0.167883   3 C  pz        
 
 Vector   18  Occ=2.000000D+00  E=-3.461387D-01  Symmetry=e2g
              MO Center= -2.0D-15,  1.8D-15,  7.4D-18, r^2= 4.2D+00
   Bfn.  Coefficient  Atom+Function         Bfn.  Coefficient  Atom+Function  
  ----- ------------  ---------------      ----- ------------  ---------------
    21     -0.221973   3 C  px               48      0.221973   6 C  px        
     3     -0.195382   1 C  px               30      0.195382   4 C  px        
    12     -0.189910   2 C  px               39      0.189910   5 C  px        
    16     -0.153193   2 C  px               43      0.153193   5 C  px        
    34      0.150338   4 C  px                7     -0.150338   1 C  px        
 
 Vector   19  Occ=2.000000D+00  E=-3.461387D-01  Symmetry=e2g
              MO Center= -2.9D-15, -3.9D-15,  4.3D-17, r^2= 4.2D+00
   Bfn.  Coefficient  Atom+Function         Bfn.  Coefficient  Atom+Function  
  ----- ------------  ---------------      ----- ------------  ---------------
    13      0.214933   2 C  py               40     -0.214933   5 C  py        
    31     -0.209461   4 C  py                4      0.209461   1 C  py        
    22      0.182870   3 C  py               49     -0.182870   6 C  py        
    60     -0.160185   9 H  s                66     -0.160185  12 H  s         
    59     -0.159417   9 H  s                65     -0.159417  12 H  s         
 
 Vector   20  Occ=2.000000D+00  E=-2.511208D-01  Symmetry=e1g
              MO Center=  7.8D-16, -2.7D-15, -5.3D-17, r^2= 3.0D+00
   Bfn.  Coefficient  Atom+Function         Bfn.  Coefficient  Atom+Function  
  ----- ------------  ---------------      ----- ------------  ---------------
    27     -0.305247   3 C  pz               54      0.305247   6 C  pz        
    23     -0.292312   3 C  pz               50      0.292312   6 C  pz        
    36     -0.156243   4 C  pz                9      0.156243   1 C  pz        
 
 Vector   21  Occ=2.000000D+00  E=-2.511208D-01  Symmetry=e1g
              MO Center=  8.9D-16,  1.9D-16,  3.6D-16, r^2= 3.0D+00
   Bfn.  Coefficient  Atom+Function         Bfn.  Coefficient  Atom+Function  
  ----- ------------  ---------------      ----- ------------  ---------------
    45     -0.266441   5 C  pz               18      0.266441   2 C  pz        
     9     -0.262262   1 C  pz               36      0.262262   4 C  pz        
    41     -0.255151   5 C  pz               14      0.255151   2 C  pz        
     5     -0.251148   1 C  pz               32      0.251148   4 C  pz        
 
 Vector   22  Occ=0.000000D+00  E= 5.351730D-03  Symmetry=e2u
              MO Center= -1.2D-15, -9.9D-32,  5.9D-17, r^2= 3.3D+00
   Bfn.  Coefficient  Atom+Function         Bfn.  Coefficient  Atom+Function  
  ----- ------------  ---------------      ----- ------------  ---------------
    36      0.486025   4 C  pz                9      0.486025   1 C  pz        
    18     -0.443897   2 C  pz               45     -0.443897   5 C  pz        
     5      0.283564   1 C  pz               32      0.283564   4 C  pz        
    41     -0.258985   5 C  pz               14     -0.258985   2 C  pz        
 
 Vector   23  Occ=0.000000D+00  E= 5.351730D-03  Symmetry=e2u
              MO Center=  2.2D-16, -4.4D-16,  1.2D-16, r^2= 3.3D+00
   Bfn.  Coefficient  Atom+Function         Bfn.  Coefficient  Atom+Function  
  ----- ------------  ---------------      ----- ------------  ---------------
    27      0.536891   3 C  pz               54      0.536891   6 C  pz        
    23      0.313241   3 C  pz               50      0.313241   6 C  pz        
    18     -0.304930   2 C  pz               45     -0.304930   5 C  pz        
     9     -0.231962   1 C  pz               36     -0.231962   4 C  pz        
    14     -0.177907   2 C  pz               41     -0.177907   5 C  pz        
 
 Vector   24  Occ=0.000000D+00  E= 1.065307D-01  Symmetry=a1g
              MO Center= -2.3D-14,  6.8D-15,  1.9D-17, r^2= 7.9D+00
   Bfn.  Coefficient  Atom+Function         Bfn.  Coefficient  Atom+Function  
  ----- ------------  ---------------      ----- ------------  ---------------
    62      0.701930  10 H  s                66      0.701930  12 H  s         
    56      0.701930   7 H  s                60      0.701930   9 H  s         
    58      0.701930   8 H  s                64      0.701930  11 H  s         
    15     -0.510106   2 C  s                 6     -0.510106   1 C  s         
    24     -0.510106   3 C  s                51     -0.510106   6 C  s         
 
 Vector   25  Occ=0.000000D+00  E= 1.643530D-01  Symmetry=e1u
              MO Center=  1.1D-15,  3.4D-15,  3.2D-17, r^2= 8.2D+00
   Bfn.  Coefficient  Atom+Function         Bfn.  Coefficient  Atom+Function  
  ----- ------------  ---------------      ----- ------------  ---------------
    56     -1.033677   7 H  s                62      1.033677  10 H  s         
    66     -0.893449  12 H  s                60      0.893449   9 H  s         
     6      0.680943   1 C  s                33     -0.680943   4 C  s         
    51      0.588567   6 C  s                24     -0.588567   3 C  s         
    53      0.464574   6 C  py               26      0.464574   3 C  py        
 
 Vector   26  Occ=0.000000D+00  E= 1.643530D-01  Symmetry=e1u
              MO Center= -1.3D-14, -3.8D-14, -3.6D-17, r^2= 8.2D+00
   Bfn.  Coefficient  Atom+Function         Bfn.  Coefficient  Atom+Function  
  ----- ------------  ---------------      ----- ------------  ---------------
    58      1.112627   8 H  s                64     -1.112627  11 H  s         
    15     -0.732952   2 C  s                42      0.732952   5 C  s         
    60     -0.677754   9 H  s                66      0.677754  12 H  s         
    16      0.585953   2 C  px               43      0.585953   5 C  px        
    24      0.446476   3 C  s                51     -0.446476   6 C  s         
 
 Vector   27  Occ=0.000000D+00  E= 1.657436D-01  Symmetry=b2g
              MO Center=  6.7D-16,  2.2D-16, -3.7D-18, r^2= 3.5D+00
   Bfn.  Coefficient  Atom+Function         Bfn.  Coefficient  Atom+Function  
  ----- ------------  ---------------      ----- ------------  ---------------
    18     -0.539800   2 C  pz               54      0.539800   6 C  pz        
    36      0.539800   4 C  pz                9     -0.539800   1 C  pz        
    27     -0.539800   3 C  pz               45      0.539800   5 C  pz        
    41      0.251810   5 C  pz                5     -0.251810   1 C  pz        
    23     -0.251810   3 C  pz               32      0.251810   4 C  pz        
 
 Vector   28  Occ=0.000000D+00  E= 2.066887D-01  Symmetry=e2g
              MO Center= -1.4D-16,  3.2D-14,  6.2D-17, r^2= 7.9D+00
   Bfn.  Coefficient  Atom+Function         Bfn.  Coefficient  Atom+Function  
  ----- ------------  ---------------      ----- ------------  ---------------
     6      1.447259   1 C  s                33      1.447259   4 C  s         
    51     -1.108513   6 C  s                24     -1.108513   3 C  s         
    56     -1.047628   7 H  s                62     -1.047628  10 H  s         
    66      0.802420  12 H  s                60      0.802420   9 H  s         
    53     -0.368612   6 C  py               26      0.368612   3 C  py        
 
 Vector   29  Occ=0.000000D+00  E= 2.066887D-01  Symmetry=e2g
              MO Center= -1.5D-13,  9.7D-14,  4.0D-17, r^2= 7.9D+00
   Bfn.  Coefficient  Atom+Function         Bfn.  Coefficient  Atom+Function  
  ----- ------------  ---------------      ----- ------------  ---------------
    15     -1.475576   2 C  s                42     -1.475576   5 C  s         
    58      1.068125   8 H  s                64      1.068125  11 H  s         
    51      1.031151   6 C  s                24      1.031151   3 C  s         
    66     -0.746419  12 H  s                60     -0.746419   9 H  s         
    33      0.444426   4 C  s                 6      0.444426   1 C  s         
 
 Vector   30  Occ=0.000000D+00  E= 2.127479D-01  Symmetry=b1u
              MO Center=  1.9D-13, -1.0D-13, -2.1D-18, r^2= 8.9D+00
   Bfn.  Coefficient  Atom+Function         Bfn.  Coefficient  Atom+Function  
  ----- ------------  ---------------      ----- ------------  ---------------
    64     -0.976852  11 H  s                60      0.976852   9 H  s         
    56      0.976852   7 H  s                62     -0.976852  10 H  s         
    58      0.976852   8 H  s                66     -0.976852  12 H  s         
    43      0.737517   5 C  px               26      0.737517   3 C  py        
    16      0.737517   2 C  px               53      0.737517   6 C  py        
 
 Vector   31  Occ=0.000000D+00  E= 3.247831D-01  Symmetry=e2g
              MO Center= -7.6D-14,  4.6D-14,  1.5D-17, r^2= 4.7D+00
   Bfn.  Coefficient  Atom+Function         Bfn.  Coefficient  Atom+Function  
  ----- ------------  ---------------      ----- ------------  ---------------
    51     -1.533181   6 C  s                24     -1.533181   3 C  s         
    33      1.254536   4 C  s                 6      1.254536   1 C  s         
    53      1.212343   6 C  py               26     -1.212343   3 C  py        
     7     -1.104102   1 C  px               34      1.104102   4 C  px        
    60     -0.788063   9 H  s                66     -0.788063  12 H  s         
 
 Vector   32  Occ=0.000000D+00  E= 3.247831D-01  Symmetry=e2g
              MO Center=  1.8D-15, -5.3D-16,  5.1D-17, r^2= 4.7D+00
   Bfn.  Coefficient  Atom+Function         Bfn.  Coefficient  Atom+Function  
  ----- ------------  ---------------      ----- ------------  ---------------
    42     -1.609489   5 C  s                15     -1.609489   2 C  s         
    16     -1.309679   2 C  px               43      1.309679   5 C  px        
    33      1.046058   4 C  s                 6      1.046058   1 C  s         
     8     -1.044150   1 C  py               35      1.044150   4 C  py        
    58     -0.827286   8 H  s                64     -0.827286  11 H  s         
 
 Vector   33  Occ=0.000000D+00  E= 3.374664D-01  Symmetry=e1u
              MO Center=  6.6D-14,  1.1D-14, -1.3D-17, r^2= 4.7D+00
   Bfn.  Coefficient  Atom+Function         Bfn.  Coefficient  Atom+Function  
  ----- ------------  ---------------      ----- ------------  ---------------
     6     -1.667814   1 C  s                33      1.667814   4 C  s         
    44      1.471289   5 C  py               17      1.471289   2 C  py        
    52      1.405685   6 C  px               25      1.405685   3 C  px        
    24      0.887224   3 C  s                51     -0.887224   6 C  s         
    42     -0.780589   5 C  s                15      0.780589   2 C  s         
 
 Vector   34  Occ=0.000000D+00  E= 3.374664D-01  Symmetry=e1u
              MO Center= -7.8D-15, -6.9D-14, -2.4D-17, r^2= 4.7D+00
   Bfn.  Coefficient  Atom+Function         Bfn.  Coefficient  Atom+Function  
  ----- ------------  ---------------      ----- ------------  ---------------
    15     -1.475152   2 C  s                42      1.475152   5 C  s         
    24      1.413586   3 C  s                51     -1.413586   6 C  s         
    34     -1.242286   4 C  px                7     -1.242286   1 C  px        
    35      1.232140   4 C  py                8      1.232140   1 C  py        
    25     -0.941697   3 C  px               52     -0.941697   6 C  px        
 
 Vector   35  Occ=0.000000D+00  E= 5.774363D-01  Symmetry=b1u
              MO Center=  8.8D-15, -5.1D-15,  6.7D-18, r^2= 3.9D+00
   Bfn.  Coefficient  Atom+Function         Bfn.  Coefficient  Atom+Function  
  ----- ------------  ---------------      ----- ------------  ---------------
    33      2.468051   4 C  s                 6     -2.468051   1 C  s         
    15     -2.468051   2 C  s                51      2.468051   6 C  s         
    42      2.468051   5 C  s                24     -2.468051   3 C  s         
    16     -1.909769   2 C  px               53     -1.909769   6 C  py        
    26     -1.909769   3 C  py               43     -1.909769   5 C  px        
 

 center of mass
 --------------
 x =   0.00000000 y =   0.00000000 z =   0.00000000

 moments of inertia (a.u.)
 ------------------
         317.315706392257           0.000000000000           0.000000000000
           0.000000000000         317.315706392257           0.000000000000
           0.000000000000           0.000000000000         634.631412784513
 
     Multipole analysis of the density
     ---------------------------------
 
     L   x y z        total         alpha         beta         nuclear
     -   - - -        -----         -----         ----         -------
     0   0 0 0      0.000000    -21.000000    -21.000000     42.000000
 
     1   1 0 0      0.000000      0.000000      0.000000      0.000000
     1   0 1 0      0.000000      0.000000      0.000000      0.000000
     1   0 0 1      0.000000      0.000000      0.000000      0.000000
 
     2   2 0 0    -23.189276   -107.279686   -107.279686    191.370096
     2   1 1 0      0.000000      0.000000      0.000000      0.000000
     2   1 0 1      0.000000      0.000000      0.000000      0.000000
     2   0 2 0    -23.189276   -107.279686   -107.279686    191.370096
     2   0 1 1      0.000000      0.000000      0.000000      0.000000
     2   0 0 2    -29.659850    -14.829925    -14.829925      0.000000
 

 Parallel integral file used       4 records with       0 large values

 Line search: 
     step= 1.00 grad=-5.0D-04 hess= 2.6D-04 energy=   -230.975758 mode=accept  
 new step= 1.00                   predicted energy=   -230.975758

          --------
          Step   1
          --------
 
 
                         Geometry "geometry" -> "geometry"
                         ---------------------------------
 
 Output coordinates in angstroms (scale by  1.889725989 to convert to a.u.)
 
  No.       Tag          Charge          X              Y              Z
 ---- ---------------- ---------- -------------- -------------- --------------
    1 C                    6.0000     0.98775669     0.98775669     0.00000000
    2 C                    6.0000    -1.34930073     0.36154404     0.00000000
    3 C                    6.0000     0.36154404    -1.34930073     0.00000000
    4 C                    6.0000    -0.98775669    -0.98775669     0.00000000
    5 C                    6.0000     1.34930073    -0.36154404     0.00000000
    6 C                    6.0000    -0.36154404     1.34930073     0.00000000
    7 H                    1.0000     1.75429068     1.75429068     0.00000000
[...]
   36 Torsion                  2     4     3     9         180.00000    0.00000
   37 Torsion                  2     6     1     5           0.00000    0.00000
   38 Torsion                  2     6     1     7         180.00000    0.00000
   39 Torsion                  3     4     2     6           0.00000    0.00000
   40 Torsion                  3     4     2     8         180.00000    0.00000
   41 Torsion                  3     5     1     6           0.00000    0.00000
   42 Torsion                  3     5     1     7         180.00000    0.00000
   43 Torsion                  4     2     6    12         180.00000    0.00000
   44 Torsion                  4     3     5    11         180.00000    0.00000
   45 Torsion                  5     1     6    12         180.00000    0.00000
   46 Torsion                  5     3     4    10         180.00000    0.00000
   47 Torsion                  6     1     5    11         180.00000    0.00000
   48 Torsion                  6     2     4    10         180.00000    0.00000
   49 Torsion                  7     1     5    11           0.00000    0.00000
   50 Torsion                  7     1     6    12           0.00000    0.00000
   51 Torsion                  8     2     4    10           0.00000    0.00000
   52 Torsion                  8     2     6    12           0.00000    0.00000
   53 Torsion                  9     3     4    10           0.00000    0.00000
   54 Torsion                  9     3     5    11           0.00000    0.00000
 

      ----------------------
      Optimization converged
      ----------------------


  Step       Energy      Delta E   Gmax     Grms     Xrms     Xmax   Walltime
  ---- ---------------- -------- -------- -------- -------- -------- --------
@    2    -230.97575878 -9.1D-07  0.00001  0.00000  0.00050  0.00092      4.0
                                     ok       ok       ok       ok  



                                Z-matrix (autoz)
                                -------- 

 Units are Angstrom for bonds and degrees for angles
 
      Type          Name      I     J     K     L     M      Value     Gradient
      ----------- --------  ----- ----- ----- ----- ----- ---------- ----------
    1 Stretch                  1     5                       1.39731    0.00001
    2 Stretch                  1     6                       1.39731    0.00001
    3 Stretch                  1     7                       1.08413    0.00001
    4 Stretch                  2     4                       1.39731    0.00001
    5 Stretch                  2     6                       1.39731    0.00001
    6 Stretch                  2     8                       1.08413    0.00001
    7 Stretch                  3     4                       1.39731    0.00001
    8 Stretch                  3     5                       1.39731    0.00001
    9 Stretch                  3     9                       1.08413    0.00001
   10 Stretch                  4    10                       1.08413    0.00001
   11 Stretch                  5    11                       1.08413    0.00001
   12 Stretch                  6    12                       1.08413    0.00001
   13 Bend                     1     5     3               120.00000    0.00000
   14 Bend                     1     5    11               120.00000    0.00000
   15 Bend                     1     6     2               120.00000    0.00000
   16 Bend                     1     6    12               120.00000    0.00000
   17 Bend                     2     4     3               120.00000    0.00000
   18 Bend                     2     4    10               120.00000    0.00000
   19 Bend                     2     6    12               120.00000    0.00000
   20 Bend                     3     4    10               120.00000    0.00000
   21 Bend                     3     5    11               120.00000    0.00000
   22 Bend                     4     2     6               120.00000    0.00000
   23 Bend                     4     2     8               120.00000    0.00000
   24 Bend                     4     3     5               120.00000    0.00000
   25 Bend                     4     3     9               120.00000    0.00000
   26 Bend                     5     1     6               120.00000    0.00000
   27 Bend                     5     1     7               120.00000    0.00000
   28 Bend                     5     3     9               120.00000    0.00000
   29 Bend                     6     1     7               120.00000    0.00000
   30 Bend                     6     2     8               120.00000    0.00000
   31 Torsion                  1     5     3     4           0.00000    0.00000
   32 Torsion                  1     5     3     9         180.00000    0.00000
   33 Torsion                  1     6     2     4           0.00000    0.00000
   34 Torsion                  1     6     2     8         180.00000    0.00000
   35 Torsion                  2     4     3     5           0.00000    0.00000
   36 Torsion                  2     4     3     9         180.00000    0.00000
   37 Torsion                  2     6     1     5           0.00000    0.00000
   38 Torsion                  2     6     1     7         180.00000    0.00000
   39 Torsion                  3     4     2     6           0.00000    0.00000
   40 Torsion                  3     4     2     8         180.00000    0.00000
   41 Torsion                  3     5     1     6           0.00000    0.00000
   42 Torsion                  3     5     1     7         180.00000    0.00000
   43 Torsion                  4     2     6    12         180.00000    0.00000
   44 Torsion                  4     3     5    11         180.00000    0.00000
   45 Torsion                  5     1     6    12         180.00000    0.00000
   46 Torsion                  5     3     4    10         180.00000    0.00000
   47 Torsion                  6     1     5    11         180.00000    0.00000
   48 Torsion                  6     2     4    10         180.00000    0.00000
   49 Torsion                  7     1     5    11           0.00000    0.00000
   50 Torsion                  7     1     6    12           0.00000    0.00000
   51 Torsion                  8     2     4    10           0.00000    0.00000
   52 Torsion                  8     2     6    12           0.00000    0.00000
   53 Torsion                  9     3     4    10           0.00000    0.00000
   54 Torsion                  9     3     5    11           0.00000    0.00000
 
 
 
                         Geometry "geometry" -> "geometry"
                         ---------------------------------
 
 Output coordinates in angstroms (scale by  1.889725989 to convert to a.u.)
 
  No.       Tag          Charge          X              Y              Z
 ---- ---------------- ---------- -------------- -------------- --------------
    1 C                    6.0000     0.98804779     0.98804779     0.00000000
    2 C                    6.0000    -1.34969838     0.36165059     0.00000000
    3 C                    6.0000     0.36165059    -1.34969838     0.00000000
    4 C                    6.0000    -0.98804779    -0.98804779     0.00000000
    5 C                    6.0000     1.34969838    -0.36165059     0.00000000
    6 C                    6.0000    -0.36165059     1.34969838     0.00000000
    7 H                    1.0000     1.75464691     1.75464691     0.00000000
    8 H                    1.0000    -2.39689225     0.64224534     0.00000000
    9 H                    1.0000     0.64224534    -2.39689225     0.00000000
   10 H                    1.0000    -1.75464691    -1.75464691     0.00000000
   11 H                    1.0000     2.39689225    -0.64224534     0.00000000
   12 H                    1.0000    -0.64224534     2.39689225     0.00000000
 
      Atomic Mass 
      ----------- 
 
      C                 12.000000
      H                  1.007825
 

 Effective nuclear repulsion energy (a.u.)     203.1821775321

            Nuclear Dipole moment (a.u.) 
            ----------------------------
        X                 Y               Z
 ---------------- ---------------- ----------------
     0.0000000000     0.0000000000     0.0000000000
 
      Symmetry information
      --------------------
 
 Group name             D6h       
 Group number             30
 Group order              24
 No. of unique centers     2
 
      Symmetry unique atoms
 
     1    7
 
 
                Final and change from initial internal coordinates
                --------------------------------------------------
 


                                Z-matrix (autoz)
                                -------- 

 Units are Angstrom for bonds and degrees for angles
 
      Type          Name      I     J     K     L     M      Value       Change
      ----------- --------  ----- ----- ----- ----- ----- ---------- ----------
    1 Stretch                  1     5                       1.39731   -0.00645
    2 Stretch                  1     6                       1.39731   -0.00645
    3 Stretch                  1     7                       1.08413    0.00182
    4 Stretch                  2     4                       1.39731   -0.00645
    5 Stretch                  2     6                       1.39731   -0.00645
    6 Stretch                  2     8                       1.08413    0.00182
    7 Stretch                  3     4                       1.39731   -0.00645
    8 Stretch                  3     5                       1.39731   -0.00645
    9 Stretch                  3     9                       1.08413    0.00182
   10 Stretch                  4    10                       1.08413    0.00182
   11 Stretch                  5    11                       1.08413    0.00182
   12 Stretch                  6    12                       1.08413    0.00182
   13 Bend                     1     5     3               120.00000    0.00000
   14 Bend                     1     5    11               120.00000    0.00000
   15 Bend                     1     6     2               120.00000    0.00000
   16 Bend                     1     6    12               120.00000    0.00000
   17 Bend                     2     4     3               120.00000    0.00000
   18 Bend                     2     4    10               120.00000    0.00000
   19 Bend                     2     6    12               120.00000    0.00000
   20 Bend                     3     4    10               120.00000    0.00000
   21 Bend                     3     5    11               120.00000    0.00000
   22 Bend                     4     2     6               120.00000    0.00000
   23 Bend                     4     2     8               120.00000    0.00000
   24 Bend                     4     3     5               120.00000    0.00000
   25 Bend                     4     3     9               120.00000    0.00000
   26 Bend                     5     1     6               120.00000    0.00000
   27 Bend                     5     1     7               120.00000    0.00000
   28 Bend                     5     3     9               120.00000    0.00000
   29 Bend                     6     1     7               120.00000    0.00000
   30 Bend                     6     2     8               120.00000    0.00000
   31 Torsion                  1     5     3     4           0.00000    0.00000
   32 Torsion                  1     5     3     9         180.00000    0.00000
   33 Torsion                  1     6     2     4           0.00000    0.00000
   34 Torsion                  1     6     2     8         180.00000    0.00000
   35 Torsion                  2     4     3     5           0.00000    0.00000
   36 Torsion                  2     4     3     9         180.00000    0.00000
   37 Torsion                  2     6     1     5           0.00000    0.00000
   38 Torsion                  2     6     1     7         180.00000    0.00000
   39 Torsion                  3     4     2     6           0.00000    0.00000
   40 Torsion                  3     4     2     8         180.00000    0.00000
   41 Torsion                  3     5     1     6           0.00000    0.00000
   42 Torsion                  3     5     1     7         180.00000    0.00000
   43 Torsion                  4     2     6    12         180.00000    0.00000
   44 Torsion                  4     3     5    11         180.00000    0.00000
   45 Torsion                  5     1     6    12         180.00000    0.00000
   46 Torsion                  5     3     4    10         180.00000    0.00000
   47 Torsion                  6     1     5    11         180.00000    0.00000
   48 Torsion                  6     2     4    10         180.00000    0.00000
   49 Torsion                  7     1     5    11           0.00000    0.00000
   50 Torsion                  7     1     6    12           0.00000    0.00000
   51 Torsion                  8     2     4    10           0.00000    0.00000
   52 Torsion                  8     2     6    12           0.00000    0.00000
   53 Torsion                  9     3     4    10           0.00000    0.00000
   54 Torsion                  9     3     5    11           0.00000    0.00000
 
 ==============================================================================
                                internuclear distances
 ------------------------------------------------------------------------------
       center one      |      center two      | atomic units |  angstroms
 ------------------------------------------------------------------------------
    4 C                |   2 C                |     2.64053  |     1.39731
    4 C                |   3 C                |     2.64053  |     1.39731
    5 C                |   1 C                |     2.64053  |     1.39731
    5 C                |   3 C                |     2.64053  |     1.39731
    6 C                |   1 C                |     2.64053  |     1.39731
    6 C                |   2 C                |     2.64053  |     1.39731
    7 H                |   1 C                |     2.04872  |     1.08413
    8 H                |   2 C                |     2.04872  |     1.08413
    9 H                |   3 C                |     2.04872  |     1.08413
   10 H                |   4 C                |     2.04872  |     1.08413
   11 H                |   5 C                |     2.04872  |     1.08413
   12 H                |   6 C                |     2.04872  |     1.08413
 ------------------------------------------------------------------------------
                         number of included internuclear distances:         12
 ==============================================================================



 ==============================================================================
                                 internuclear angles
 ------------------------------------------------------------------------------
        center 1       |       center 2       |       center 3       |  degrees
 ------------------------------------------------------------------------------
    5 C                |   1 C                |   6 C                |   120.00
    5 C                |   1 C                |   7 H                |   120.00
    6 C                |   1 C                |   7 H                |   120.00
    4 C                |   2 C                |   6 C                |   120.00
    4 C                |   2 C                |   8 H                |   120.00
    6 C                |   2 C                |   8 H                |   120.00
    4 C                |   3 C                |   5 C                |   120.00
    4 C                |   3 C                |   9 H                |   120.00
    5 C                |   3 C                |   9 H                |   120.00
    2 C                |   4 C                |   3 C                |   120.00
    2 C                |   4 C                |  10 H                |   120.00
    3 C                |   4 C                |  10 H                |   120.00
    1 C                |   5 C                |   3 C                |   120.00
    1 C                |   5 C                |  11 H                |   120.00
    3 C                |   5 C                |  11 H                |   120.00
    1 C                |   6 C                |   2 C                |   120.00
    1 C                |   6 C                |  12 H                |   120.00
    2 C                |   6 C                |  12 H                |   120.00
 ------------------------------------------------------------------------------
                            number of included internuclear angles:         18
 ==============================================================================




 Task  times  cpu:        1.8s     wall:        2.7s
 
 
                                NWChem Input Module
                                -------------------
 
 
 Summary of allocated global arrays
-----------------------------------
  No active global arrays



                         GA Statistics for process    0
                         ------------------------------

       create   destroy   get      put      acc     scatter   gather  read&inc
calls:  436      436     2.68e+04 7250     2.98e+04    0        0        0     
number of processes/call 1.17e+00 1.20e+00 1.00e+00 0.00e+00 0.00e+00
bytes total:             2.93e+07 6.73e+06 7.78e+06 0.00e+00 0.00e+00 0.00e+00
bytes remote:            1.63e+07 2.90e+06 5.32e+06 0.00e+00 0.00e+00 0.00e+00
Max memory consumed for GA by this process: 454528 bytes
 
MA_summarize_allocated_blocks: starting scan ...
MA_summarize_allocated_blocks: scan completed: 0 heap blocks, 0 stack blocks
MA usage statistics:

	allocation statistics:
					      heap	     stack
					      ----	     -----
	current number of blocks	         0	         0
	maximum number of blocks	        25	        52
	current total bytes		         0	         0
	maximum total bytes		   2095288	  22514040
	maximum total K-bytes		      2096	     22515
	maximum total M-bytes		         3	        23
 
 
                                     CITATION
                                     --------
                Please cite the following reference when publishing
                           results obtained with NWChem:
 
                 M. Valiev, E.J. Bylaska, N. Govind, K. Kowalski,
              T.P. Straatsma, H.J.J. van Dam, D. Wang, J. Nieplocha,
                        E. Apra, T.L. Windus, W.A. de Jong
                 "NWChem: a comprehensive and scalable open-source
                  solution for large scale molecular simulations"
                      Comput. Phys. Commun. 181, 1477 (2010)
                           doi:10.1016/j.cpc.2010.04.018
 
                              AUTHORS & CONTRIBUTORS
                              ----------------------
      E. J. Bylaska, W. A. de Jong, N. Govind, K. Kowalski, T. P. Straatsma,
     M. Valiev, H. J. J. van Dam, D. Wang, E. Apra, T. L. Windus, J. Hammond,
     J. Autschbach, P. Nichols, S. Hirata, M. T. Hackler, Y. Zhao, P.-D. Fan,
      R. J. Harrison, M. Dupuis, D. M. A. Smith, K. Glaesemann, J. Nieplocha,
      V. Tipparaju, M. Krishnan, A. Vazquez-Mayagoitia, L. Jensen, M. Swart,
      Q. Wu, T. Van Voorhis, A. A. Auer, M. Nooijen, L. D. Crosby, E. Brown,
             G. Cisneros, G. I. Fann, H. Fruchtl, J. Garza, K. Hirao,
        R. Kendall, J. A. Nichols, K. Tsemekhman, K. Wolinski, J. Anchell,
       D. Bernholdt, P. Borowski, T. Clark, D. Clerc, H. Dachsel, M. Deegan,
        K. Dyall, D. Elwood, E. Glendening, M. Gutowski, A. Hess, J. Jaffe,
        B. Johnson, J. Ju, R. Kobayashi, R. Kutteh, Z. Lin, R. Littlefield,
    X. Long, B. Meng, T. Nakajima, S. Niu, L. Pollack, M. Rosing, G. Sandrone,
       M. Stave, H. Taylor, G. Thomas, J. H. van Lenthe, A. Wong, Z. Zhang.

 Total times  cpu:        2.5s     wall:        4.0s
