 argument  1 = 2h2o.nw
 


============================== echo of input deck ==============================
echo

start 2H2O_b3lyp

title "2 waters"

memory 1000 mb

geometry
symmetry c1
O     -0.000545       1.517541       0.000000
H      0.094538       0.553640       0.000000
H      0.901237       1.847958       0.000000
O     -0.000545      -1.389760       0.000000
H     -0.493527      -1.711924       0.761014
H     -0.493527      -1.711924      -0.761014
end

basis
 O library 6-31G**
 H library 6-31G**
end

dft
 xc b3lyp
end

tddft
 nroots 10
 notriplet
end
task tddft energy
================================================================================


                                         
                                         
 
 
              Northwest Computational Chemistry Package (NWChem) 6.0
              ------------------------------------------------------
 
 
                    Environmental Molecular Sciences Laboratory
                       Pacific Northwest National Laboratory
                                Richland, WA 99352
 
                              Copyright (c) 1994-2010
                       Pacific Northwest National Laboratory
                            Battelle Memorial Institute
 
             NWChem is an open-source computational chemistry package
                        distributed under the terms of the
                      Educational Community License (ECL) 2.0
             A copy of the license is included with this distribution
                              in the LICENSE.TXT file
 
                                  ACKNOWLEDGMENT
                                  --------------

            This software and its documentation were developed at the
            EMSL at Pacific Northwest National Laboratory, a multiprogram
            national laboratory, operated for the U.S. Department of Energy
            by Battelle under Contract Number DE-AC05-76RL01830. Support
            for this work was provided by the Department of Energy Office
            of Biological and Environmental Research, Office of Basic
            Energy Sciences, and the Office of Advanced Scientific Computing.


           Job information
           ---------------

    hostname      = curie
    program       = ../../../bin/LINUX64/nwchem
    date          = Tue Nov 16 13:50:39 2010

    compiled      = Mon_Nov_15_10:21:04_2010
    source        = /home/niri/nwchem/nwchem-6.0
    nwchem branch = 6.0
    input         = 2h2o.nw
    prefix        = 2H2O_b3lyp.
    data base     = ./2H2O_b3lyp.db
    status        = startup
    nproc         =        4
    time left     =     -1s



           Memory information
           ------------------

    heap     =   32768001 doubles =    250.0 Mbytes
    stack    =   32768001 doubles =    250.0 Mbytes
    global   =   65536000 doubles =    500.0 Mbytes (distinct from heap & stack)
    total    =  131072002 doubles =   1000.0 Mbytes
    verify   = yes
    hardfail = no 


           Directory information
           ---------------------
 
  0 permanent = .
  0 scratch   = .
 
 
 
 
                                NWChem Input Module
                                -------------------
 
 
                                     2 waters
                                     --------

 Scaling coordinates for geometry "geometry" by  1.889725989
 (inverse scale =  0.529177249)

 Turning off AUTOSYM since
 SYMMETRY directive was detected!
 

          ------
          auto-z
          ------
  autoz: The atoms group into disjoint clusters
 cluster   1:    1    2    3 
 cluster   2:    4    5    6 
 Connecting clusters   1   2 via atoms    2    4 r = 1.95
  autoz: regenerating connections with new bonds
 
 
                             Geometry "geometry" -> ""
                             -------------------------
 
 Output coordinates in angstroms (scale by  1.889725989 to convert to a.u.)
 
  No.       Tag          Charge          X              Y              Z
 ---- ---------------- ---------- -------------- -------------- --------------
    1 O                    8.0000    -0.00054505     1.51754110     0.00000000
    2 H                    1.0000     0.09453795     0.55364010     0.00000000
    3 H                    1.0000     0.90123695     1.84795810     0.00000000
    4 O                    8.0000    -0.00054505    -1.38975990     0.00000000
    5 H                    1.0000    -0.49352705    -1.71192390     0.76101400
    6 H                    1.0000    -0.49352705    -1.71192390    -0.76101400
 
      Atomic Mass 
      ----------- 
 
      O                 15.994910
      H                  1.007825
 

 Effective nuclear repulsion energy (a.u.)      36.5821916495

            Nuclear Dipole moment (a.u.) 
            ----------------------------
        X                 Y               Z
 ---------------- ---------------- ----------------
     0.0000000000     0.0000000000     0.0000000000
 


                                Z-matrix (autoz)
                                -------- 

 Units are Angstrom for bonds and degrees for angles
 
      Type          Name      I     J     K     L     M      Value
      ----------- --------  ----- ----- ----- ----- ----- ----------
    1 Stretch                  1     2                       0.96858
    2 Stretch                  1     3                       0.96041
    3 Stretch                  2     4                       1.94572
    4 Stretch                  4     5                       0.96227
    5 Stretch                  4     6                       0.96227
    6 Bend                     1     2     4               171.56532
    7 Bend                     2     4     5               111.06528
    8 Bend                     2     4     6               111.06528
    9 Bend                     2     1     3               104.48941
   10 Bend                     5     4     6               104.53060
   11 Torsion                  1     2     4     5         -57.93965
   12 Torsion                  1     2     4     6          57.93965
   13 Torsion                  3     1     2     4         180.00000
 
 
            XYZ format geometry
            -------------------
     6
 geometry
 O                    -0.00054505     1.51754110     0.00000000
 H                     0.09453795     0.55364010     0.00000000
 H                     0.90123695     1.84795810     0.00000000
 O                    -0.00054505    -1.38975990     0.00000000
 H                    -0.49352705    -1.71192390     0.76101400
 H                    -0.49352705    -1.71192390    -0.76101400
 
 ==============================================================================
                                internuclear distances
 ------------------------------------------------------------------------------
       center one      |      center two      | atomic units |  angstroms
 ------------------------------------------------------------------------------
    2 H                |   1 O                |     1.83035  |     0.96858
    3 H                |   1 O                |     1.81491  |     0.96041
    5 H                |   4 O                |     1.81843  |     0.96227
    6 H                |   4 O                |     1.81843  |     0.96227
 ------------------------------------------------------------------------------
                         number of included internuclear distances:          4
 ==============================================================================



 ==============================================================================
                                 internuclear angles
 ------------------------------------------------------------------------------
        center 1       |       center 2       |       center 3       |  degrees
 ------------------------------------------------------------------------------
    2 H                |   1 O                |   3 H                |   104.49
    5 H                |   4 O                |   6 H                |   104.53
 ------------------------------------------------------------------------------
                            number of included internuclear angles:          2
 ==============================================================================



  warning:::::::::::::: from_environment
  NWCHEM_BASIS_LIBRARY set to: <
 /home/niri/nwchem/nwchem-dev3/src/basis/libraries/>
  but file does not exist !
  using .nwchemrc or compiled library
                      Basis "ao basis" -> "" (cartesian)
                      -----
  O (Oxygen)
  ----------
            Exponent  Coefficients 
       -------------- ---------------------------------------------------------
  1 S  5.48467170E+03  0.001831
  1 S  8.25234950E+02  0.013950
  1 S  1.88046960E+02  0.068445
  1 S  5.29645000E+01  0.232714
  1 S  1.68975700E+01  0.470193
  1 S  5.79963530E+00  0.358521
 
  2 S  1.55396160E+01 -0.110778
  2 S  3.59993360E+00 -0.148026
  2 S  1.01376180E+00  1.130767
 
  3 P  1.55396160E+01  0.070874
  3 P  3.59993360E+00  0.339753
  3 P  1.01376180E+00  0.727159
 
  4 S  2.70005800E-01  1.000000
 
  5 P  2.70005800E-01  1.000000
 
  6 D  8.00000000E-01  1.000000
 
  H (Hydrogen)
  ------------
            Exponent  Coefficients 
       -------------- ---------------------------------------------------------
  1 S  1.87311370E+01  0.033495
  1 S  2.82539370E+00  0.234727
  1 S  6.40121700E-01  0.813757
 
  2 S  1.61277800E-01  1.000000
 
  3 P  1.10000000E+00  1.000000
 


 Summary of "ao basis" -> "" (cartesian)
 ------------------------------------------------------------------------------
       Tag                 Description            Shells   Functions and Types
 ---------------- ------------------------------  ------  ---------------------
 O                          6-31G**                  6       15   3s2p1d
 H                          6-31G**                  3        5   2s1p


 
                                 NWChem DFT Module
                                 -----------------
 
 
                                     2 waters
 
 
  Caching 1-el integrals 
 
            General Information
            -------------------
          SCF calculation type: DFT
          Wavefunction type:  closed shell.
          No. of atoms     :     6
          No. of electrons :    20
           Alpha electrons :    10
            Beta electrons :    10
          Charge           :     0
          Spin multiplicity:     1
          Use of symmetry is: off; symmetry adaption is: off
          Maximum number of iterations:  30
          AO basis - number of functions:    50
                     number of shells:    24
          Convergence on energy requested: 1.00D-06
          Convergence on density requested: 1.00D-05
          Convergence on gradient requested: 5.00D-04
 
              XC Information
              --------------
                         B3LYP Method XC Potential
                     Hartree-Fock (Exact) Exchange  0.200          
                        Slater Exchange Functional  0.800 local    
                    Becke 1988 Exchange Functional  0.720 non-local
              Lee-Yang-Parr Correlation Functional  0.810          
                  VWN I RPA Correlation Functional  0.190 local    
 
             Grid Information
             ----------------
          Grid used for XC integration:  medium    
          Radial quadrature: Mura-Knowles        
          Angular quadrature: Lebedev. 
          Tag              B.-S. Rad. Rad. Pts. Rad. Cut. Ang. Pts.
          ---              ---------- --------- --------- ---------
          O                   0.60       49           9.0       434
          H                   0.35       45          10.0       434
          Grid pruning is: on 
          Number of quadrature shells:   278
          Spatial weights used:  Erf1
 
          Convergence Information
          -----------------------
          Convergence aids based upon iterative change in 
          total energy or number of iterations. 
          Levelshifting, if invoked, occurs when the 
          HOMO/LUMO gap drops below (HL_TOL): 1.00D-02
          DIIS, if invoked, will attempt to extrapolate 
          using up to (NFOCK): 10 stored Fock matrices.

                    Damping( 0%)  Levelshifting(0.5)       DIIS
                  --------------- ------------------- ---------------
          dE  on:    start            ASAP                start   
          dE off:    2 iters         30 iters            30 iters 

 
      Screening Tolerance Information
      -------------------------------
          Density screening/tol_rho: 1.00D-10
          AO Gaussian exp screening on grid/accAOfunc:  14
          CD Gaussian exp screening on grid/accCDfunc:  20
          XC Gaussian exp screening on grid/accXCfunc:  20
          Schwarz screening/accCoul: 1.00D-08

 
      Superposition of Atomic Density Guess
      -------------------------------------
 
 Sum of atomic energies:        -151.50163462
 
      Non-variational initial energy
      ------------------------------

 Total energy =    -151.854680
 1-e energy   =    -279.896451
 2-e energy   =      91.459579
 HOMO         =      -0.469389
 LUMO         =       0.093667
 
   Time after variat. SCF:      0.1
   Time prior to 1st pass:      0.1

 Integral file          = ./2H2O_b3lyp.aoints.0
 Record size in doubles =  65536        No. of integs per rec  =  43688
 Max. records in memory =      8        Max. records in file   =   3200
 No. of bits per label  =      8        No. of bits per value  =     64


 #quartets = 3.748D+04 #integrals = 4.591D+05 #direct =  0.0% #cached =100.0%


File balance: exchanges=     0  moved=     0  time=   0.0


 Grid_pts file          = ./2H2O_b3lyp.gridpts.0
 Record size in doubles =  12289        No. of grid_pts per rec  =   3070
 Max. records in memory =     12        Max. recs in file   =     17073


           Memory utilization after 1st SCF pass: 
           Heap Space remaining (MW):       32.09            32093988
          Stack Space remaining (MW):       32.77            32767585

   convergence    iter        energy       DeltaE   RMS-Dens  Diis-err    time
 ---------------- ----- ----------------- --------- --------- ---------  ------
 d= 0,ls=0.0,diis     1   -152.7866478918 -1.89D+02  1.86D-02  6.80D-01     0.4
 d= 0,ls=0.0,diis     2   -152.7840402156  2.61D-03  9.09D-03  7.62D-01     0.7
 d= 0,ls=0.0,diis     3   -152.8490561440 -6.50D-02  1.32D-03  2.10D-02     0.9
 d= 0,ls=0.0,diis     4   -152.8508606525 -1.80D-03  1.72D-04  2.06D-04     1.1
 d= 0,ls=0.0,diis     5   -152.8508760407 -1.54D-05  6.74D-05  4.76D-05     1.3
 d= 0,ls=0.0,diis     6   -152.8508801260 -4.09D-06  7.74D-06  6.17D-07     1.5
 d= 0,ls=0.0,diis     7   -152.8508801802 -5.42D-08  1.19D-06  1.01D-08     1.7


         Total DFT energy =     -152.850880180172
      One electron energy =     -282.751658377677
           Coulomb energy =      112.031889071387
    Exchange-Corr. energy =      -18.713302523401
 Nuclear repulsion energy =       36.582191649519

 Numeric. integr. density =       19.999999595434

     Total iterative time =      1.7s


 
                       DFT Final Molecular Orbital Analysis
                       ------------------------------------
 
 Vector    1  Occ=2.000000D+00  E=-1.917256D+01
              MO Center= -6.3D-04, -1.4D+00, -3.3D-13, r^2= 1.5D-02
   Bfn.  Coefficient  Atom+Function         Bfn.  Coefficient  Atom+Function  
  ----- ------------  ---------------      ----- ------------  ---------------
    26      0.992803  4 O  s          
 
 Vector    2  Occ=2.000000D+00  E=-1.909893D+01
              MO Center= -4.6D-04,  1.5D+00,  6.5D-14, r^2= 1.5D-02
   Bfn.  Coefficient  Atom+Function         Bfn.  Coefficient  Atom+Function  
  ----- ------------  ---------------      ----- ------------  ---------------
     1      0.992831  1 O  s          
 
 Vector    3  Occ=2.000000D+00  E=-1.031766D+00
              MO Center= -1.7D-01, -1.5D+00, -1.9D-10, r^2= 5.3D-01
   Bfn.  Coefficient  Atom+Function         Bfn.  Coefficient  Atom+Function  
  ----- ------------  ---------------      ----- ------------  ---------------
    27     -0.467807  4 O  s                 31     -0.426067  4 O  s          
    26      0.211001  4 O  s                 46     -0.150858  6 H  s          
    41     -0.150858  5 H  s          
 
 Vector    4  Occ=2.000000D+00  E=-9.611050D-01
              MO Center=  1.7D-01,  1.4D+00,  2.4D-11, r^2= 5.4D-01
   Bfn.  Coefficient  Atom+Function         Bfn.  Coefficient  Atom+Function  
  ----- ------------  ---------------      ----- ------------  ---------------
     2     -0.464353  1 O  s                  6     -0.431694  1 O  s          
     1      0.210765  1 O  s                 21     -0.154816  3 H  s          
 
 Vector    5  Occ=2.000000D+00  E=-5.485772D-01
              MO Center= -1.8D-01, -1.5D+00,  2.2D-10, r^2= 7.7D-01
   Bfn.  Coefficient  Atom+Function         Bfn.  Coefficient  Atom+Function  
  ----- ------------  ---------------      ----- ------------  ---------------
    30      0.518386  4 O  pz                34      0.252337  4 O  pz         
    41      0.243110  5 H  s                 46     -0.243110  6 H  s          
 
 Vector    6  Occ=2.000000D+00  E=-4.862269D-01
              MO Center=  1.7D-01,  1.2D+00, -7.6D-11, r^2= 1.2D+00
   Bfn.  Coefficient  Atom+Function         Bfn.  Coefficient  Atom+Function  
  ----- ------------  ---------------      ----- ------------  ---------------
     4      0.417081  1 O  py                 3      0.259639  1 O  px         
    21      0.235435  3 H  s                 16     -0.235145  2 H  s          
     8      0.202239  1 O  py                17     -0.157090  2 H  s          
    22      0.154703  3 H  s          
 
 Vector    7  Occ=2.000000D+00  E=-4.072548D-01
              MO Center=  6.4D-02, -1.1D+00,  1.3D-11, r^2= 1.3D+00
   Bfn.  Coefficient  Atom+Function         Bfn.  Coefficient  Atom+Function  
  ----- ------------  ---------------      ----- ------------  ---------------
    28      0.436061  4 O  px                31      0.369853  4 O  s          
    29      0.308556  4 O  py                32      0.286168  4 O  px         
    33      0.193804  4 O  py                27      0.163506  4 O  s          
 
 Vector    8  Occ=2.000000D+00  E=-3.411708D-01
              MO Center= -2.9D-02,  4.8D-01, -3.7D-12, r^2= 2.7D+00
   Bfn.  Coefficient  Atom+Function         Bfn.  Coefficient  Atom+Function  
  ----- ------------  ---------------      ----- ------------  ---------------
     3      0.384633  1 O  px                 6     -0.340372  1 O  s          
    28     -0.286997  4 O  px                 7      0.250123  1 O  px         
    29      0.244743  4 O  py                32     -0.205293  4 O  px         
     4     -0.202934  1 O  py                33      0.190665  4 O  py         
 
 Vector    9  Occ=2.000000D+00  E=-3.197898D-01
              MO Center= -4.3D-02, -3.5D-01,  5.9D-11, r^2= 2.6D+00
   Bfn.  Coefficient  Atom+Function         Bfn.  Coefficient  Atom+Function  
  ----- ------------  ---------------      ----- ------------  ---------------
    29      0.457247  4 O  py                33      0.338712  4 O  py         
    28     -0.261203  4 O  px                 4      0.258033  1 O  py         
     3     -0.239920  1 O  px                32     -0.207123  4 O  px         
     8      0.178474  1 O  py                 6      0.173790  1 O  s          
     7     -0.172726  1 O  px         
 
 Vector   10  Occ=2.000000D+00  E=-2.589325D-01
              MO Center=  2.0D-02,  1.5D+00,  1.2D-11, r^2= 6.0D-01
   Bfn.  Coefficient  Atom+Function         Bfn.  Coefficient  Atom+Function  
  ----- ------------  ---------------      ----- ------------  ---------------
     5     -0.639615  1 O  pz                 9     -0.499410  1 O  pz         
 
 Vector   11  Occ=0.000000D+00  E= 4.189071D-02
              MO Center= -5.4D-01, -1.6D+00, -9.0D-10, r^2= 3.0D+00
   Bfn.  Coefficient  Atom+Function         Bfn.  Coefficient  Atom+Function  
  ----- ------------  ---------------      ----- ------------  ---------------
    31     -1.235895  4 O  s                 47      0.914192  6 H  s          
    42      0.914192  5 H  s                 32      0.361484  4 O  px         
     6     -0.297392  1 O  s                 17      0.270440  2 H  s          
    28      0.211744  4 O  px                22      0.191277  3 H  s          
    33      0.188713  4 O  py         
 
 Vector   12  Occ=0.000000D+00  E= 1.169550D-01
              MO Center=  9.2D-01,  1.5D+00,  4.0D-10, r^2= 2.8D+00
   Bfn.  Coefficient  Atom+Function         Bfn.  Coefficient  Atom+Function  
  ----- ------------  ---------------      ----- ------------  ---------------
    22     -1.389472  3 H  s                  6      1.145922  1 O  s          
     7      0.518627  1 O  px                17     -0.390725  2 H  s          
     3      0.286663  1 O  px                31     -0.264544  4 O  s          
    42      0.240886  5 H  s                 47      0.240886  6 H  s          
 
 Vector   13  Occ=0.000000D+00  E= 1.325799D-01
              MO Center= -5.7D-01, -1.8D+00,  3.2D-10, r^2= 2.5D+00
   Bfn.  Coefficient  Atom+Function         Bfn.  Coefficient  Atom+Function  
  ----- ------------  ---------------      ----- ------------  ---------------
    47      1.280392  6 H  s                 42     -1.280392  5 H  s          
    34      0.751911  4 O  pz                30      0.410919  4 O  pz         
 
 Vector   14  Occ=0.000000D+00  E= 2.507001D-01
              MO Center=  2.1D-01,  5.3D-01, -1.1D-10, r^2= 2.4D+00
   Bfn.  Coefficient  Atom+Function         Bfn.  Coefficient  Atom+Function  
  ----- ------------  ---------------      ----- ------------  ---------------
    17      1.659970  2 H  s                 22     -0.842102  3 H  s          
     8      0.689921  1 O  py                 6     -0.442817  1 O  s          
     4      0.387962  1 O  py                33     -0.255556  4 O  py         
    47     -0.251367  6 H  s                 42     -0.251367  5 H  s          
    29     -0.248875  4 O  py                 7      0.234362  1 O  px         
 
 Vector   15  Occ=0.000000D+00  E= 7.309989D-01
              MO Center= -3.0D-01, -1.5D+00,  3.9D-09, r^2= 1.8D+00
   Bfn.  Coefficient  Atom+Function         Bfn.  Coefficient  Atom+Function  
  ----- ------------  ---------------      ----- ------------  ---------------
    41      0.766872  5 H  s                 46     -0.766872  6 H  s          
    42     -0.764570  5 H  s                 47      0.764570  6 H  s          
    37     -0.378558  4 O  dxz               39     -0.255038  4 O  dyz        
    34     -0.209826  4 O  pz                30     -0.177729  4 O  pz         
 
 Vector   16  Occ=0.000000D+00  E= 7.814275D-01
              MO Center= -1.8D-01, -6.7D-01, -5.6D-09, r^2= 3.5D+00
   Bfn.  Coefficient  Atom+Function         Bfn.  Coefficient  Atom+Function  
  ----- ------------  ---------------      ----- ------------  ---------------
    46      0.552740  6 H  s                 41      0.552740  5 H  s          
    31      0.532295  4 O  s                 16      0.525574  2 H  s          
    17     -0.509376  2 H  s                 47     -0.500700  6 H  s          
    42     -0.500700  5 H  s                 21     -0.399408  3 H  s          
    22      0.394806  3 H  s                 28      0.378762  4 O  px         
 
 Vector   17  Occ=0.000000D+00  E= 8.069529D-01
              MO Center=  4.5D-01,  8.0D-01, -1.1D-09, r^2= 3.8D+00
   Bfn.  Coefficient  Atom+Function         Bfn.  Coefficient  Atom+Function  
  ----- ------------  ---------------      ----- ------------  ---------------
    21     -0.857691  3 H  s                 22      0.804545  3 H  s          
    32      0.462275  4 O  px                28     -0.431974  4 O  px         
     6     -0.335020  1 O  s                  8      0.296668  1 O  py         
    47      0.268420  6 H  s                 42      0.268420  5 H  s          
     3      0.256399  1 O  px                11     -0.216364  1 O  dxy        
 
 Vector   18  Occ=0.000000D+00  E= 8.400236D-01
              MO Center= -7.3D-02,  6.1D-01,  1.4D-10, r^2= 2.9D+00
   Bfn.  Coefficient  Atom+Function         Bfn.  Coefficient  Atom+Function  
  ----- ------------  ---------------      ----- ------------  ---------------
    17      0.642895  2 H  s                  7     -0.590838  1 O  px         
    32     -0.580295  4 O  px                 3      0.561853  1 O  px         
    16     -0.472017  2 H  s                 28      0.460833  4 O  px         
    31     -0.373683  4 O  s                  6      0.284711  1 O  s          
    13     -0.274628  1 O  dyy                2     -0.255877  1 O  s          
 
 Vector   19  Occ=0.000000D+00  E= 8.635691D-01
              MO Center= -4.2D-02, -8.8D-01,  4.5D-09, r^2= 2.7D+00
   Bfn.  Coefficient  Atom+Function         Bfn.  Coefficient  Atom+Function  
  ----- ------------  ---------------      ----- ------------  ---------------
    31      0.911360  4 O  s                 17      0.754252  2 H  s          
    16     -0.580702  2 H  s                 27     -0.567694  4 O  s          
    32      0.546091  4 O  px                42     -0.476659  5 H  s          
    47     -0.476659  6 H  s                 41      0.473368  5 H  s          
    46      0.473368  6 H  s                 28     -0.395497  4 O  px         
 
 Vector   20  Occ=0.000000D+00  E= 9.184237D-01
              MO Center= -2.3D-02,  1.2D+00, -5.9D-10, r^2= 2.0D+00
   Bfn.  Coefficient  Atom+Function         Bfn.  Coefficient  Atom+Function  
  ----- ------------  ---------------      ----- ------------  ---------------
     9     -0.981465  1 O  pz                 5      0.914754  1 O  pz         
    34     -0.505798  4 O  pz                47     -0.396392  6 H  s          
    42      0.396392  5 H  s                 30      0.265641  4 O  pz         
 

 center of mass
 --------------
 x =  -0.00045364 y =   0.05317509 z =   0.00000000

 moments of inertia (a.u.)
 ------------------
         280.417502649338         -12.260688732726           0.000000000000
         -12.260688732726           8.877296121759           0.000000000000
           0.000000000000           0.000000000000         280.957447824215
 
     Multipole analysis of the density
     ---------------------------------
 
     L   x y z        total         alpha         beta         nuclear
     -   - - -        -----         -----         ----         -------
     0   0 0 0      0.000000    -10.000000    -10.000000     20.000000
 
     1   1 0 0     -0.036256     -0.018128     -0.018128      0.000000
     1   0 1 0     -1.154195     -0.577097     -0.577097      0.000000
     1   0 0 1      0.000000      0.000000      0.000000      0.000000
 
     2   2 0 0     -8.317493     -6.494773     -6.494773      4.672052
     2   1 1 0      4.731921     -3.717334     -3.717334     12.166589
     2   1 0 1      0.000000      0.000000      0.000000      0.000000
     2   0 2 0     -8.566491    -81.878441    -81.878441    155.190391
     2   0 1 1      0.000000      0.000000      0.000000      0.000000
     2   0 0 2     -8.421991     -6.279150     -6.279150      4.136309
 

 Parallel integral file used      12 records with       0 large values

                                NWChem TDDFT Module
                                -------------------
 
 
                                     2 waters
 
 
            General Information
            -------------------
           No. of orbitals :   100
            Alpha orbitals :    50
             Beta orbitals :    50
        Alpha frozen cores :     0
         Beta frozen cores :     0
     Alpha frozen virtuals :     0
      Beta frozen virtuals :     0
         Spin multiplicity :     1
    Number of AO functions :    50
        Use of symmetry is : off
      Symmetry adaption is : off
         Schwarz screening : 0.10D-07
 
              XC Information
              --------------
                  B3LYP Method XC Potential
              Hartree-Fock (Exact) Exchange   0.20          
                 Slater Exchange Functional   0.80 local    
             Becke 1988 Exchange Functional   0.72 non-local
       Lee-Yang-Parr Correlation Functional   0.81          
           VWN I RPA Correlation Functional   0.19 local    
 
             TDDFT Information
             -----------------
          Calculation type : TDDFT             
         Wavefunction type : Restricted singlets
          No. of electrons :    20
           Alpha electrons :    10
            Beta electrons :    10
              No. of roots :    10
          Max subspacesize :   400
            Max iterations :   100
               Target root :     1
           Target symmetry : none
      Symmetry restriction : off
                 Algorithm : Optimal
        Davidson threshold : 0.10D-03
 
            Memory Information
            ------------------
          Available GA space size is         262141500 doubles
          Available MA space size is          65533705 doubles
          Length of a trial vector is          400
          Algorithm : Incore multiple tensor contraction
          Estimated peak GA usage is            858000 doubles
          Estimated peak MA usage is             71000 doubles

  Entering Davidson iterations
  Restricted singlet excited states

  Iter   NTrls   NConv    DeltaV     DeltaE      Time   
  ----  ------  ------  ---------  ---------  --------- 
    1     10       0     0.26E+00   0.10+100        3.6
    2     30       0     0.34E-01   0.13E-01        6.7
    3     50       0     0.72E-02   0.36E-03        6.8
    4     70       2     0.44E-02   0.30E-03        7.0
    5     86       6     0.40E-03   0.69E-05        5.7
    6     94      10     0.75E-04   0.38E-07        3.2
  ----  ------  ------  ---------  ---------  --------- 
  Convergence criterion met
 
  Ground state a     -152.850880180 a.u.
 
  -------------------------------------------------------
  Root  1 singlet a     0.266508172 a.u. (  7.2520594 eV)
  -------------------------------------------------------
     Transition Moments    X  0.00000   Y  0.00000   Z  0.11963
     Transition Moments   XX  0.00000  XY  0.00000  XZ  0.03427
     Transition Moments   YY  0.00000  YZ  0.28676  ZZ  0.00000
     Transition Moments  XXX  0.00000 XXY  0.00000 XXZ  0.34965
     Transition Moments  XYY  0.00000 XYZ  0.13798 XZZ  0.00000
     Transition Moments  YYY  0.00000 YYZ  1.10043 YZZ  0.00000
     Transition Moments  ZZZ  0.76281
     Dipole Oscillator Strength                          0.00254
 
     Occ. 10  a   ---  Virt. 11  a    0.98925 X
     Occ. 10  a   ---  Virt. 12  a   -0.14093 X
  -------------------------------------------------------
  Root  2 singlet a     0.307028628 a.u. (  8.3546776 eV)
  -------------------------------------------------------
     Transition Moments    X  0.12475   Y -0.41186   Z  0.00000
     Transition Moments   XX -0.12845  XY -0.27853  XZ  0.00000
     Transition Moments   YY  1.16327  YZ  0.00000  ZZ  0.04133
     Transition Moments  XXX  0.99024 XXY -0.52321 XXZ  0.00000
     Transition Moments  XYY  0.51564 XYZ  0.00000 XZZ  0.42409
     Transition Moments  YYY-10.02306 YYZ  0.00000 YZZ -1.14220
     Transition Moments  ZZZ  0.00000
     Dipole Oscillator Strength                          0.03791
 
     Occ.  8  a   ---  Virt. 11  a    0.36201 X
     Occ.  9  a   ---  Virt. 11  a    0.92825 X
     Occ.  9  a   ---  Virt. 12  a    0.06493 X
  -------------------------------------------------------
  Root  3 singlet a     0.314083903 a.u. (  8.5466615 eV)
  -------------------------------------------------------
     Transition Moments    X  0.00000   Y  0.00000   Z -0.21590
     Transition Moments   XX  0.00000  XY  0.00000  XZ -0.17183
     Transition Moments   YY  0.00000  YZ -0.71836  ZZ  0.00000
     Transition Moments  XXX  0.00000 XXY  0.00000 XXZ -0.82221
     Transition Moments  XYY  0.00000 XYZ -0.57982 XZZ  0.00000
     Transition Moments  YYY  0.00000 YYZ -2.51734 YZZ  0.00000
     Transition Moments  ZZZ -1.28554
     Dipole Oscillator Strength                          0.00976
 
     Occ. 10  a   ---  Virt. 11  a    0.13858 X
     Occ. 10  a   ---  Virt. 12  a    0.98861 X
     Occ. 10  a   ---  Virt. 14  a    0.05678 X
  -------------------------------------------------------
  Root  4 singlet a     0.345636599 a.u. (  9.4052544 eV)
  -------------------------------------------------------
     Transition Moments    X  0.02865   Y  0.27005   Z  0.00000
     Transition Moments   XX -0.36065  XY -0.90239  XZ  0.00000
     Transition Moments   YY  0.33360  YZ  0.00000  ZZ -0.25128
     Transition Moments  XXX  0.06654 XXY  0.45323 XXZ  0.00000
     Transition Moments  XYY  0.47015 XYZ  0.00000 XZZ  0.33933
     Transition Moments  YYY  4.77651 YYZ  0.00000 YZZ  0.88778
     Transition Moments  ZZZ  0.00000
     Dipole Oscillator Strength                          0.01699
 
     Occ.  7  a   ---  Virt. 11  a   -0.06650 X
     Occ.  8  a   ---  Virt. 11  a    0.92353 X
     Occ.  9  a   ---  Virt. 11  a   -0.36313 X
     Occ.  9  a   ---  Virt. 12  a    0.08022 X
  -------------------------------------------------------
  Root  5 singlet a     0.361487649 a.u. (  9.8365836 eV)
  -------------------------------------------------------
     Transition Moments    X -0.02015   Y -0.05177   Z  0.00000
     Transition Moments   XX  0.01195  XY  0.00318  XZ  0.00000
     Transition Moments   YY -0.02802  YZ  0.00000  ZZ  0.05945
     Transition Moments  XXX -0.13339 XXY -0.14542 XXZ  0.00000
     Transition Moments  XYY -0.18876 XYZ  0.00000 XZZ -0.07844
     Transition Moments  YYY -0.80509 YYZ  0.00000 YZZ -0.16519
     Transition Moments  ZZZ  0.00000
     Dipole Oscillator Strength                          0.00074
 
     Occ. 10  a   ---  Virt. 13  a   -0.99946 X
  -------------------------------------------------------
  Root  6 singlet a     0.384317601 a.u. ( 10.4578185 eV)
  -------------------------------------------------------
     Transition Moments    X  0.00000   Y  0.00000   Z -0.00430
     Transition Moments   XX  0.00000  XY  0.00000  XZ -0.12715
     Transition Moments   YY  0.00000  YZ  0.22266  ZZ  0.00000
     Transition Moments  XXX  0.00000 XXY  0.00000 XXZ  0.33836
     Transition Moments  XYY  0.00000 XYZ  0.17125 XZZ  0.00000
     Transition Moments  YYY  0.00000 YYZ -1.54128 YZZ  0.00000
     Transition Moments  ZZZ -0.07729
     Dipole Oscillator Strength                          0.00000
 
     Occ.  8  a   ---  Virt. 13  a    0.41416 X
     Occ.  9  a   ---  Virt. 13  a    0.90912 X
  -------------------------------------------------------
  Root  7 singlet a     0.393184723 a.u. ( 10.6991052 eV)
  -------------------------------------------------------
     Transition Moments    X -0.35275   Y  0.25993   Z  0.00000
     Transition Moments   XX -0.55247  XY -1.18275  XZ  0.00000
     Transition Moments   YY  0.22776  YZ  0.00000  ZZ -0.05091
     Transition Moments  XXX -2.86970 XXY -1.28495 XXZ  0.00000
     Transition Moments  XYY -3.67579 XYZ  0.00000 XZZ -0.47001
     Transition Moments  YYY  4.07286 YYZ  0.00000 YZZ  0.34970
     Transition Moments  ZZZ  0.00000
     Dipole Oscillator Strength                          0.05033
 
     Occ.  6  a   ---  Virt. 12  a    0.08046 X
     Occ.  8  a   ---  Virt. 11  a   -0.10260 X
     Occ.  8  a   ---  Virt. 12  a   -0.35986 X
     Occ.  9  a   ---  Virt. 12  a    0.92007 X
  -------------------------------------------------------
  Root  8 singlet a     0.399272240 a.u. ( 10.8647551 eV)
  -------------------------------------------------------
     Transition Moments    X -0.58106   Y -0.50910   Z  0.00000
     Transition Moments   XX  0.26859  XY  1.11358  XZ  0.00000
     Transition Moments   YY  1.84413  YZ  0.00000  ZZ  0.53783
     Transition Moments  XXX -3.68269 XXY -2.99625 XXZ  0.00000
     Transition Moments  XYY -6.92067 XYZ  0.00000 XZZ -1.62824
     Transition Moments  YYY-13.08881 YYZ  0.00000 YZZ -2.76916
     Transition Moments  ZZZ  0.00000
     Dipole Oscillator Strength                          0.15886
 
     Occ.  5  a   ---  Virt. 13  a   -0.08699 X
     Occ.  7  a   ---  Virt. 11  a    0.98646 X
     Occ.  8  a   ---  Virt. 11  a    0.05750 X
     Occ.  8  a   ---  Virt. 12  a   -0.10813 X
  -------------------------------------------------------
  Root  9 singlet a     0.417698064 a.u. ( 11.3661475 eV)
  -------------------------------------------------------
     Transition Moments    X  0.37259   Y  0.23004   Z  0.00000
     Transition Moments   XX  0.63275  XY  1.18335  XZ  0.00000
     Transition Moments   YY  0.09786  YZ  0.00000  ZZ  0.05374
     Transition Moments  XXX  2.97718 XXY  2.33315 XXZ  0.00000
     Transition Moments  XYY  4.38118 XYZ  0.00000 XZZ  0.60894
     Transition Moments  YYY  3.33954 YYZ  0.00000 YZZ  0.35420
     Transition Moments  ZZZ  0.00000
     Dipole Oscillator Strength                          0.05339
 
     Occ.  7  a   ---  Virt. 11  a    0.09700 X
     Occ.  8  a   ---  Virt. 12  a    0.91845 X
     Occ.  9  a   ---  Virt. 11  a   -0.05964 X
     Occ.  9  a   ---  Virt. 12  a    0.36688 X
     Occ.  9  a   ---  Virt. 14  a   -0.05474 X
  -------------------------------------------------------
  Root 10 singlet a     0.437438540 a.u. ( 11.9033134 eV)
  -------------------------------------------------------
     Transition Moments    X  0.00000   Y  0.00000   Z  0.01629
     Transition Moments   XX  0.00000  XY  0.00000  XZ  0.06732
     Transition Moments   YY  0.00000  YZ  0.42817  ZZ  0.00000
     Transition Moments  XXX  0.00000 XXY  0.00000 XXZ -0.27544
     Transition Moments  XYY  0.00000 XYZ -0.69157 XZZ  0.00000
     Transition Moments  YYY  0.00000 YYZ -0.75864 YZZ  0.00000
     Transition Moments  ZZZ  0.09331
     Dipole Oscillator Strength                          0.00008
 
     Occ.  7  a   ---  Virt. 13  a    0.05036 X
     Occ.  8  a   ---  Virt. 13  a   -0.44246 X
     Occ.  9  a   ---  Virt. 13  a    0.20018 X
     Occ. 10  a   ---  Virt. 14  a    0.86997 X
 
              Target root =      1
          Target symmetry = none
      Ground state energy =   -152.850880180172
        Excitation energy =      0.266508172245
     Excited state energy =   -152.584372007926
 

 Task  times  cpu:       34.8s     wall:       43.3s
 
 
                                NWChem Input Module
                                -------------------
 
 
 Summary of allocated global arrays
-----------------------------------
  No active global arrays



                         GA Statistics for process    0
                         ------------------------------

       create   destroy   get      put      acc     scatter   gather  read&inc
calls: 2.52e+04 2.52e+04 1.66e+05 6.47e+04 1.09e+05  470        0        0     
number of processes/call 1.09e+00 1.17e+00 1.03e+00 1.00e+00 0.00e+00
bytes total:             1.40e+08 2.94e+07 1.12e+08 2.35e+06 0.00e+00 0.00e+00
bytes remote:            9.57e+07 4.50e+06 8.49e+07 0.00e+00 0.00e+00 0.00e+00
Max memory consumed for GA by this process: 1706000 bytes
 
MA_summarize_allocated_blocks: starting scan ...
MA_summarize_allocated_blocks: scan completed: 0 heap blocks, 0 stack blocks
MA usage statistics:

	allocation statistics:
					      heap	     stack
					      ----	     -----
	current number of blocks	         0	         0
	maximum number of blocks	        23	        48
	current total bytes		         0	         0
	maximum total bytes		   5392104	  22511992
	maximum total K-bytes		      5393	     22512
	maximum total M-bytes		         6	        23
 
 
                                     CITATION
                                     --------
                Please cite the following reference when publishing
                           results obtained with NWChem:
 
                 M. Valiev, E.J. Bylaska, N. Govind, K. Kowalski,
              T.P. Straatsma, H.J.J. van Dam, D. Wang, J. Nieplocha,
                        E. Apra, T.L. Windus, W.A. de Jong
                 "NWChem: a comprehensive and scalable open-source
                  solution for large scale molecular simulations"
                      Comput. Phys. Commun. 181, 1477 (2010)
                           doi:10.1016/j.cpc.2010.04.018
 
                              AUTHORS & CONTRIBUTORS
                              ----------------------
      E. J. Bylaska, W. A. de Jong, N. Govind, K. Kowalski, T. P. Straatsma,
     M. Valiev, H. J. J. van Dam, D. Wang, E. Apra, T. L. Windus, J. Hammond,
     J. Autschbach, P. Nichols, S. Hirata, M. T. Hackler, Y. Zhao, P.-D. Fan,
      R. J. Harrison, M. Dupuis, D. M. A. Smith, K. Glaesemann, J. Nieplocha,
      V. Tipparaju, M. Krishnan, A. Vazquez-Mayagoitia, L. Jensen, M. Swart,
      Q. Wu, T. Van Voorhis, A. A. Auer, M. Nooijen, L. D. Crosby, E. Brown,
             G. Cisneros, G. I. Fann, H. Fruchtl, J. Garza, K. Hirao,
        R. Kendall, J. A. Nichols, K. Tsemekhman, K. Wolinski, J. Anchell,
       D. Bernholdt, P. Borowski, T. Clark, D. Clerc, H. Dachsel, M. Deegan,
        K. Dyall, D. Elwood, E. Glendening, M. Gutowski, A. Hess, J. Jaffe,
        B. Johnson, J. Ju, R. Kobayashi, R. Kutteh, Z. Lin, R. Littlefield,
    X. Long, B. Meng, T. Nakajima, S. Niu, L. Pollack, M. Rosing, G. Sandrone,
       M. Stave, H. Taylor, G. Thomas, J. H. van Lenthe, A. Wong, Z. Zhang.

 Total times  cpu:       34.8s     wall:       43.4s
